 Entering Gaussian System, Link 0=/opt/app/gaussian09/e01/g09/g09.exec
 Input=anthraquinone_td.gjf
 Output=anthraquinone_td.log
 Initial command:
 /opt/app/gaussian09/e01/g09/l1.exe "./Gau-48353.inp" -scrdir="./"
 Entering Link 1 = /opt/app/gaussian09/e01/g09/l1.exe PID=     48357.
  
 Copyright (c) 1988,1990,1992,1993,1995,1998,2003,2009,2015,
            Gaussian, Inc.  All Rights Reserved.
  
 This is part of the Gaussian(R) 09 program.  It is based on
 the Gaussian(R) 03 system (copyright 2003, Gaussian, Inc.),
 the Gaussian(R) 98 system (copyright 1998, Gaussian, Inc.),
 the Gaussian(R) 94 system (copyright 1995, Gaussian, Inc.),
 the Gaussian 92(TM) system (copyright 1992, Gaussian, Inc.),
 the Gaussian 90(TM) system (copyright 1990, Gaussian, Inc.),
 the Gaussian 88(TM) system (copyright 1988, Gaussian, Inc.),
 the Gaussian 86(TM) system (copyright 1986, Carnegie Mellon
 University), and the Gaussian 82(TM) system (copyright 1983,
 Carnegie Mellon University). Gaussian is a federally registered
 trademark of Gaussian, Inc.
  
 This software contains proprietary and confidential information,
 including trade secrets, belonging to Gaussian, Inc.
  
 This software is provided under written license and may be
 used, copied, transmitted, or stored only in accord with that
 written license.
  
 The following legend is applicable only to US Government
 contracts under FAR:
  
                    RESTRICTED RIGHTS LEGEND
  
 Use, reproduction and disclosure by the US Government is
 subject to restrictions as set forth in subparagraphs (a)
 and (c) of the Commercial Computer Software - Restricted
 Rights clause in FAR 52.227-19.
  
 Gaussian, Inc.
 340 Quinnipiac St., Bldg. 40, Wallingford CT 06492
  
  
 ---------------------------------------------------------------
 Warning -- This program may not be used in any manner that
 competes with the business of Gaussian, Inc. or will provide
 assistance to any competitor of Gaussian, Inc.  The licensee
 of this program is prohibited from giving any competitor of
 Gaussian, Inc. access to this program.  By using this program,
 the user acknowledges that Gaussian, Inc. is engaged in the
 business of creating and licensing software in the field of
 computational chemistry and represents and warrants to the
 licensee that it is not a competitor of Gaussian, Inc. and that
 it will not use this program in any manner prohibited above.
 ---------------------------------------------------------------
  

 Cite this work as:
 Gaussian 09, Revision E.01,
 M. J. Frisch, G. W. Trucks, H. B. Schlegel, G. E. Scuseria, 
 M. A. Robb, J. R. Cheeseman, G. Scalmani, V. Barone, B. Mennucci, 
 G. A. Petersson, H. Nakatsuji, M. Caricato, X. Li, H. P. Hratchian, 
 A. F. Izmaylov, J. Bloino, G. Zheng, J. L. Sonnenberg, M. Hada, 
 M. Ehara, K. Toyota, R. Fukuda, J. Hasegawa, M. Ishida, T. Nakajima, 
 Y. Honda, O. Kitao, H. Nakai, T. Vreven, J. A. Montgomery, Jr., 
 J. E. Peralta, F. Ogliaro, M. Bearpark, J. J. Heyd, E. Brothers, 
 K. N. Kudin, V. N. Staroverov, T. Keith, R. Kobayashi, J. Normand, 
 K. Raghavachari, A. Rendell, J. C. Burant, S. S. Iyengar, J. Tomasi, 
 M. Cossi, N. Rega, J. M. Millam, M. Klene, J. E. Knox, J. B. Cross, 
 V. Bakken, C. Adamo, J. Jaramillo, R. Gomperts, R. E. Stratmann, 
 O. Yazyev, A. J. Austin, R. Cammi, C. Pomelli, J. W. Ochterski, 
 R. L. Martin, K. Morokuma, V. G. Zakrzewski, G. A. Voth, 
 P. Salvador, J. J. Dannenberg, S. Dapprich, A. D. Daniels, 
 O. Farkas, J. B. Foresman, J. V. Ortiz, J. Cioslowski, 
 and D. J. Fox, Gaussian, Inc., Wallingford CT, 2013.
 
 ******************************************
 Gaussian 09:  ES64L-G09RevE.01 30-Nov-2015
                30-May-2021 
 ******************************************
 %chk=anthraquinone_td.chk
 ------------------------------------------
 #p td(NStates=10) b3lyp/6-31+G(d) pop=full
 ------------------------------------------
 1/38=1/1;
 2/12=2,17=6,18=5,40=1/2;
 3/5=1,6=6,7=11,11=9,16=1,25=1,30=1,74=-5/1,2,8,3;
 4//1;
 5/5=2,38=5/2;
 8/6=1,10=2,108=10/1;
 9/41=10,42=1,70=2/14;
 6/7=3/1;
 99/5=1,9=1/99;
 Leave Link    1 at Sun May 30 22:26:56 2021, MaxMem=           0 cpu:         0.0
 (Enter /opt/app/gaussian09/e01/g09/l101.exe)
 --
 TD
 --
 Symbolic Z-matrix:
 Charge =  0 Multiplicity = 1
 C                     3.69521   0.70006   0.00052 
 C                     2.49085   1.39852   0.00013 
 C                     1.27534   0.70436  -0.00008 
 C                     1.27534  -0.70436   0.00004 
 C                     2.49085  -1.39852   0.00033 
 C                     3.69522  -0.70006   0.00063 
 C                    0.         1.47857  -0.00032 
 C                     0.       -1.47857  -0.00021 
 C                    -1.27534  -0.70436  -0.00008 
 C                    -1.27534   0.70436   0.00005 
 C                    -2.49085   1.39852   0.00041 
 H                    -2.46401   2.48328   0.00047 
 C                    -3.69521   0.70006   0.00067 
 C                    -3.69521  -0.70006   0.00047 
 C                    -2.49085  -1.39852   0.00006 
 H                     4.63633   1.24306   0.00071 
 H                     2.46401   2.48328   0.00001 
 H                     2.46401  -2.48328   0.00034 
 H                     4.63633  -1.24306   0.00096 
 H                    -4.63633   1.24306   0.00102 
 H                    -4.63633  -1.24306   0.00063 
 H                    -2.46401  -2.48328  -0.00008 
 O                     0.       -2.7049   -0.0012 
 O                    0.         2.7049   -0.00127 
 
 NAtoms=     24 NQM=       24 NQMF=       0 NMMI=      0 NMMIF=      0
                NMic=       0 NMicF=      0.
                    Isotopes and Nuclear Properties:
 (Nuclear quadrupole moments (NQMom) in fm**2, nuclear magnetic moments (NMagM)
  in nuclear magnetons)

  Atom         1           2           3           4           5           6           7           8           9          10
 IAtWgt=          12          12          12          12          12          12          12          12          12          12
 AtmWgt=  12.0000000  12.0000000  12.0000000  12.0000000  12.0000000  12.0000000  12.0000000  12.0000000  12.0000000  12.0000000
 NucSpn=           0           0           0           0           0           0           0           0           0           0
 AtZEff=   0.0000000   0.0000000   0.0000000   0.0000000   0.0000000   0.0000000   0.0000000   0.0000000   0.0000000   0.0000000
 NQMom=    0.0000000   0.0000000   0.0000000   0.0000000   0.0000000   0.0000000   0.0000000   0.0000000   0.0000000   0.0000000
 NMagM=    0.0000000   0.0000000   0.0000000   0.0000000   0.0000000   0.0000000   0.0000000   0.0000000   0.0000000   0.0000000
 AtZNuc=   6.0000000   6.0000000   6.0000000   6.0000000   6.0000000   6.0000000   6.0000000   6.0000000   6.0000000   6.0000000

  Atom        11          12          13          14          15          16          17          18          19          20
 IAtWgt=          12           1          12          12          12           1           1           1           1           1
 AtmWgt=  12.0000000   1.0078250  12.0000000  12.0000000  12.0000000   1.0078250   1.0078250   1.0078250   1.0078250   1.0078250
 NucSpn=           0           1           0           0           0           1           1           1           1           1
 AtZEff=   0.0000000   0.0000000   0.0000000   0.0000000   0.0000000   0.0000000   0.0000000   0.0000000   0.0000000   0.0000000
 NQMom=    0.0000000   0.0000000   0.0000000   0.0000000   0.0000000   0.0000000   0.0000000   0.0000000   0.0000000   0.0000000
 NMagM=    0.0000000   2.7928460   0.0000000   0.0000000   0.0000000   2.7928460   2.7928460   2.7928460   2.7928460   2.7928460
 AtZNuc=   6.0000000   1.0000000   6.0000000   6.0000000   6.0000000   1.0000000   1.0000000   1.0000000   1.0000000   1.0000000

  Atom        21          22          23          24
 IAtWgt=           1           1          16          16
 AtmWgt=   1.0078250   1.0078250  15.9949146  15.9949146
 NucSpn=           1           1           0           0
 AtZEff=   0.0000000   0.0000000   0.0000000   0.0000000
 NQMom=    0.0000000   0.0000000   0.0000000   0.0000000
 NMagM=    2.7928460   2.7928460   0.0000000   0.0000000
 AtZNuc=   1.0000000   1.0000000   8.0000000   8.0000000
 Leave Link  101 at Sun May 30 22:26:57 2021, MaxMem=    33554432 cpu:         0.1
 (Enter /opt/app/gaussian09/e01/g09/l202.exe)
                          Input orientation:                          
 ---------------------------------------------------------------------
 Center     Atomic      Atomic             Coordinates (Angstroms)
 Number     Number       Type             X           Y           Z
 ---------------------------------------------------------------------
      1          6           0        3.695215    0.700061    0.000520
      2          6           0        2.490854    1.398521    0.000127
      3          6           0        1.275335    0.704360   -0.000080
      4          6           0        1.275336   -0.704359    0.000039
      5          6           0        2.490855   -1.398520    0.000331
      6          6           0        3.695215   -0.700060    0.000633
      7          6           0       -0.000000    1.478571   -0.000323
      8          6           0        0.000001   -1.478572   -0.000209
      9          6           0       -1.275336   -0.704359   -0.000076
     10          6           0       -1.275336    0.704359    0.000048
     11          6           0       -2.490855    1.398520    0.000411
     12          1           0       -2.464008    2.483282    0.000469
     13          6           0       -3.695215    0.700060    0.000671
     14          6           0       -3.695215   -0.700061    0.000465
     15          6           0       -2.490855   -1.398520    0.000063
     16          1           0        4.636330    1.243061    0.000705
     17          1           0        2.464008    2.483282    0.000007
     18          1           0        2.464006   -2.483282    0.000344
     19          1           0        4.636331   -1.243058    0.000957
     20          1           0       -4.636331    1.243059    0.001016
     21          1           0       -4.636331   -1.243060    0.000626
     22          1           0       -2.464006   -2.483282   -0.000082
     23          8           0        0.000000   -2.704900   -0.001205
     24          8           0       -0.000000    2.704898   -0.001265
 ---------------------------------------------------------------------
                    Distance matrix (angstroms):
                    1          2          3          4          5
     1  C    0.000000
     2  C    1.392239   0.000000
     3  C    2.419883   1.399767   0.000000
     4  C    2.797894   2.428907   1.408719   0.000000
     5  C    2.419612   2.797041   2.428907   1.399767   0.000000
     6  C    1.400121   2.419613   2.797895   2.419883   1.392239
     7  C    3.776333   2.492141   1.491940   2.528175   3.805524
     8  C    4.289644   3.805524   2.528175   1.491940   2.492141
     9  C    5.165149   4.313501   2.913831   2.550672   3.829628
    10  C    4.970552   3.829628   2.550671   2.913831   4.313501
    11  C    6.225376   4.981709   3.829628   4.313501   5.713219
    12  H    6.412168   5.072215   4.140924   4.913629   6.294367
    13  C    7.390430   6.225376   4.970552   5.165149   6.532343
    14  C    7.521887   6.532342   5.165149   4.970552   6.225376
    15  C    6.532342   5.713218   4.313501   3.829628   4.981710
    16  H    1.086529   2.151100   3.403892   3.884421   3.403088
    17  H    2.166968   1.085094   2.139511   3.402058   3.881895
    18  H    3.413143   3.881895   3.402058   2.139510   1.085094
    19  H    2.159030   3.403088   3.884422   3.403893   2.151101
    20  H    8.349221   7.128880   5.936160   6.224166   7.600968
    21  H    8.555137   7.600968   6.224165   5.936160   7.128881
    22  H    6.933230   6.294365   4.913627   4.140923   5.072214
    23  O    5.024775   4.800251   3.639990   2.372477   2.812648
    24  O    4.204045   2.812647   2.372475   3.639989   4.800250
                    6          7          8          9         10
     6  C    0.000000
     7  C    4.289645   0.000000
     8  C    3.776333   2.957143   0.000000
     9  C    4.970553   2.528174   1.491941   0.000000
    10  C    5.165150   1.491940   2.528175   1.408718   0.000000
    11  C    6.532343   2.492141   3.805525   2.428907   1.399766
    12  H    6.933231   2.660973   4.665578   3.402058   2.139511
    13  C    7.521888   3.776333   4.289645   2.797894   2.419883
    14  C    7.390430   4.289644   3.776334   2.419883   2.797894
    15  C    6.225376   3.805524   2.492141   1.399766   2.428907
    16  H    2.159031   4.642308   5.376135   6.224165   5.936159
    17  H    3.413142   2.660974   4.665578   4.913629   4.140925
    18  H    2.166969   4.665577   2.660971   4.140923   4.913628
    19  H    1.086529   5.376136   4.642309   5.936161   6.224166
    20  H    8.555137   4.642308   5.376136   3.884421   3.403893
    21  H    8.349221   5.376135   4.642309   3.403893   3.884421
    22  H    6.412167   4.665577   2.660972   2.139510   3.402058
    23  O    4.204045   4.183471   1.226329   2.372477   3.639991
    24  O    5.024775   1.226327   4.183470   3.639988   2.372475
                   11         12         13         14         15
    11  C    0.000000
    12  H    1.085094   0.000000
    13  C    1.392239   2.166968   0.000000
    14  C    2.419613   3.413143   1.400121   0.000000
    15  C    2.797040   3.881895   2.419612   1.392239   0.000000
    16  H    7.128880   7.207839   8.349221   8.555136   7.600967
    17  H    5.072216   4.928016   6.412169   6.933232   6.294367
    18  H    6.294366   6.996576   6.933230   6.412167   5.072214
    19  H    7.600968   8.018755   8.555137   8.349222   7.128881
    20  H    2.151101   2.501427   1.086530   2.159031   3.403088
    21  H    3.403088   4.313306   2.159031   1.086530   2.151101
    22  H    3.881895   4.966564   3.413143   2.166968   1.085094
    23  O    4.800252   5.743568   5.024776   4.204045   2.812648
    24  O    2.812647   2.473954   4.204044   5.024774   4.800250
                   16         17         18         19         20
    16  H    0.000000
    17  H    2.501426   0.000000
    18  H    4.313307   4.966564   0.000000
    19  H    2.486119   4.313305   2.501429   0.000000
    20  H    9.272660   7.207841   8.018753   9.600158   0.000000
    21  H    9.600157   8.018755   7.207839   9.272662   2.486119
    22  H    8.018753   6.996577   4.928013   7.207839   4.313306
    23  O    6.089495   5.743568   2.473953   4.861332   6.089495
    24  O    4.861330   2.473955   5.743566   6.089494   4.861331
                   21         22         23         24
    21  H    0.000000
    22  H    2.501428   0.000000
    23  O    4.861332   2.473953   0.000000
    24  O    6.089494   5.743565   5.409798   0.000000
 Stoichiometry    C14H8O2
 Framework group  C1[X(C14H8O2)]
 Deg. of freedom    66
 Full point group                 C1      NOp   1
 Largest Abelian subgroup         C1      NOp   1
 Largest concise Abelian subgroup C1      NOp   1
                         Standard orientation:                         
 ---------------------------------------------------------------------
 Center     Atomic      Atomic             Coordinates (Angstroms)
 Number     Number       Type             X           Y           Z
 ---------------------------------------------------------------------
      1          6           0       -3.695215   -0.700061    0.000520
      2          6           0       -2.490854   -1.398521    0.000127
      3          6           0       -1.275335   -0.704360   -0.000080
      4          6           0       -1.275336    0.704359    0.000039
      5          6           0       -2.490855    1.398520    0.000331
      6          6           0       -3.695215    0.700060    0.000633
      7          6           0        0.000000   -1.478571   -0.000323
      8          6           0       -0.000001    1.478572   -0.000209
      9          6           0        1.275336    0.704359   -0.000076
     10          6           0        1.275336   -0.704359    0.000048
     11          6           0        2.490855   -1.398520    0.000411
     12          1           0        2.464008   -2.483282    0.000469
     13          6           0        3.695215   -0.700060    0.000671
     14          6           0        3.695215    0.700061    0.000465
     15          6           0        2.490855    1.398520    0.000063
     16          1           0       -4.636330   -1.243061    0.000705
     17          1           0       -2.464008   -2.483282    0.000007
     18          1           0       -2.464006    2.483282    0.000344
     19          1           0       -4.636331    1.243058    0.000957
     20          1           0        4.636330   -1.243059    0.001016
     21          1           0        4.636331    1.243060    0.000626
     22          1           0        2.464006    2.483282   -0.000082
     23          8           0       -0.000000    2.704900   -0.001205
     24          8           0        0.000000   -2.704898   -0.001265
 ---------------------------------------------------------------------
 Rotational constants (GHZ):      1.1014534      0.4423711      0.3156131
 Leave Link  202 at Sun May 30 22:26:57 2021, MaxMem=    33554432 cpu:         0.0
 (Enter /opt/app/gaussian09/e01/g09/l301.exe)
 Standard basis: 6-31+G(d) (6D, 7F)
 Ernie: Thresh=  0.10000D-02 Tol=  0.10000D-05 Strict=F.
 There are   320 symmetry adapted cartesian basis functions of A   symmetry.
 There are   320 symmetry adapted basis functions of A   symmetry.
   320 basis functions,   544 primitive gaussians,   320 cartesian basis functions
    54 alpha electrons       54 beta electrons
       nuclear repulsion energy       976.0264284510 Hartrees.
 IExCor=  402 DFT=T Ex+Corr=B3LYP ExCW=0 ScaHFX=  0.200000
 ScaDFX=  0.800000  0.720000  1.000000  0.810000 ScalE2=  1.000000  1.000000
 IRadAn=      0 IRanWt=     -1 IRanGd=            0 ICorTp=0 IEmpDi=  4
 NAtoms=   24 NActive=   24 NUniq=   24 SFac= 1.00D+00 NAtFMM=   60 NAOKFM=F Big=F
 Integral buffers will be    131072 words long.
 Regular integral format.
 Two-electron integral symmetry is turned on.
 Leave Link  301 at Sun May 30 22:26:57 2021, MaxMem=    33554432 cpu:         0.0
 (Enter /opt/app/gaussian09/e01/g09/l302.exe)
 NPDir=0 NMtPBC=     1 NCelOv=     1 NCel=       1 NClECP=     1 NCelD=      1
         NCelK=      1 NCelE2=     1 NClLst=     1 CellRange=     0.0.
 One-electron integrals computed using PRISM.
 NBasis=   320 RedAO= T EigKep=  1.23D-06  NBF=   320
 NBsUse=   315 1.00D-06 EigRej=  8.67D-07 NBFU=   315
 Precomputing XC quadrature grid using
 IXCGrd= 4 IRadAn=           0 IRanWt=          -1 IRanGd=           0 AccXCQ= 0.00D+00.
 Generated NRdTot=       0 NPtTot=           0 NUsed=           0 NTot=          32
 NSgBfM=   318   318   318   318   318 MxSgAt=    24 MxSgA2=    24.
 Leave Link  302 at Sun May 30 22:26:57 2021, MaxMem=    33554432 cpu:         0.6
 (Enter /opt/app/gaussian09/e01/g09/l308.exe)
 Leave Link  308 at Sun May 30 22:26:58 2021, MaxMem=    33554432 cpu:         0.1
 (Enter /opt/app/gaussian09/e01/g09/l303.exe)
 DipDrv:  MaxL=1.
 Leave Link  303 at Sun May 30 22:26:58 2021, MaxMem=    33554432 cpu:         0.0
 (Enter /opt/app/gaussian09/e01/g09/l401.exe)
 ExpMin= 4.38D-02 ExpMax= 5.48D+03 ExpMxC= 8.25D+02 IAcc=2 IRadAn=         4 AccDes= 0.00D+00
 Harris functional with IExCor=  402 and IRadAn=       4 diagonalized for initial guess.
 HarFok:  IExCor=  402 AccDes= 0.00D+00 IRadAn=         4 IDoV= 1 UseB2=F ITyADJ=14
 ICtDFT=  3500011 ScaDFX=  1.000000  1.000000  1.000000  1.000000
 FoFCou: FMM=F IPFlag=           0 FMFlag=      100000 FMFlg1=           0
         NFxFlg=           0 DoJE=T BraDBF=F KetDBF=T FulRan=T
         wScrn=  0.000000 ICntrl=     500 IOpCl=  0 I1Cent=   200000004 NGrid=           0
         NMat0=    1 NMatS0=      1 NMatT0=    0 NMatD0=    1 NMtDS0=    0 NMtDT0=    0
 Petite list used in FoFCou.
 Harris En= -688.784272222572    
 JPrj=0 DoOrth=F DoCkMO=F.
 Leave Link  401 at Sun May 30 22:27:08 2021, MaxMem=    33554432 cpu:         8.7
 (Enter /opt/app/gaussian09/e01/g09/l502.exe)
 Closed shell SCF:
 Using DIIS extrapolation, IDIIS=  1040.
 Integral symmetry usage will be decided dynamically.
 IVT=      330054 IEndB=      330054 NGot=    33554432 MDV=    33343739
 LenX=    33343739 LenY=    33240898
 Requested convergence on RMS density matrix=1.00D-08 within 128 cycles.
 Requested convergence on MAX density matrix=1.00D-06.
 Requested convergence on             energy=1.00D-06.
 No special actions if energy rises.
 Fock matrices will be formed incrementally for  20 cycles.

 Cycle   1  Pass 1  IDiag  1:
 FoFJK:  IHMeth= 1 ICntrl=       0 DoSepK=F KAlg= 0 I1Cent=   0 FoldK=F
 IRaf= 880000000 NMat=   1 IRICut=       1 DoRegI=T DoRafI=F ISym2E= 0.
 FoFCou: FMM=F IPFlag=           0 FMFlag=      100000 FMFlg1=           0
         NFxFlg=           0 DoJE=F BraDBF=F KetDBF=F FulRan=T
         wScrn=  0.000000 ICntrl=       0 IOpCl=  0 I1Cent=           0 NGrid=           0
         NMat0=    1 NMatS0=      1 NMatT0=    0 NMatD0=    1 NMtDS0=    0 NMtDT0=    0
 Symmetry not used in FoFCou.
 E= -688.497233184180    
 DIIS: error= 3.35D-02 at cycle   1 NSaved=   1.
 NSaved= 1 IEnMin= 1 EnMin= -688.497233184180     IErMin= 1 ErrMin= 3.35D-02
 ErrMax= 3.35D-02  0.00D+00 EMaxC= 1.00D-01 BMatC= 3.27D-01 BMatP= 3.27D-01
 IDIUse=3 WtCom= 6.65D-01 WtEn= 3.35D-01
 Coeff-Com:  0.100D+01
 Coeff-En:   0.100D+01
 Coeff:      0.100D+01
 Gap=     0.146 Goal=   None    Shift=    0.000
 GapD=    0.146 DampG=1.000 DampE=0.500 DampFc=0.5000 IDamp=-1.
 Damping current iteration by 5.00D-01
 RMSDP=5.40D-02 MaxDP=4.05D+00              OVMax= 2.90D-01

 Cycle   2  Pass 1  IDiag  1:
 RMSU=  2.68D-02    CP:  1.02D+00
 E= -688.582426567578     Delta-E=       -0.085193383398 Rises=F Damp=T
 DIIS: error= 1.72D-02 at cycle   2 NSaved=   2.
 NSaved= 2 IEnMin= 2 EnMin= -688.582426567578     IErMin= 2 ErrMin= 1.72D-02
 ErrMax= 1.72D-02  0.00D+00 EMaxC= 1.00D-01 BMatC= 6.56D-02 BMatP= 3.27D-01
 IDIUse=3 WtCom= 8.28D-01 WtEn= 1.72D-01
 Coeff-Com:  0.229D+00 0.771D+00
 Coeff-En:   0.330D+00 0.670D+00
 Coeff:      0.246D+00 0.754D+00
 Gap=     0.161 Goal=   None    Shift=    0.000
 RMSDP=3.85D-02 MaxDP=2.63D+00 DE=-8.52D-02 OVMax= 2.68D-01

 Cycle   3  Pass 1  IDiag  1:
 RMSU=  8.10D-03    CP:  7.44D-01  9.41D-01
 E= -688.746092141029     Delta-E=       -0.163665573451 Rises=F Damp=F
 DIIS: error= 1.91D-02 at cycle   3 NSaved=   3.
 NSaved= 3 IEnMin= 3 EnMin= -688.746092141029     IErMin= 2 ErrMin= 1.72D-02
 ErrMax= 1.91D-02  0.00D+00 EMaxC= 1.00D-01 BMatC= 6.01D-02 BMatP= 6.56D-02
 IDIUse=3 WtCom= 8.09D-01 WtEn= 1.91D-01
 Coeff-Com:  0.393D-01 0.482D+00 0.479D+00
 Coeff-En:   0.000D+00 0.000D+00 0.100D+01
 Coeff:      0.318D-01 0.390D+00 0.578D+00
 Gap=     0.169 Goal=   None    Shift=    0.000
 RMSDP=1.51D-02 MaxDP=1.00D+00 DE=-1.64D-01 OVMax= 1.09D-01

 Cycle   4  Pass 1  IDiag  1:
 RMSU=  5.63D-03    CP:  6.96D-01  4.92D-01  6.77D-01
 E= -688.778662204934     Delta-E=       -0.032570063905 Rises=F Damp=F
 DIIS: error= 1.34D-02 at cycle   4 NSaved=   4.
 NSaved= 4 IEnMin= 4 EnMin= -688.778662204934     IErMin= 4 ErrMin= 1.34D-02
 ErrMax= 1.34D-02  0.00D+00 EMaxC= 1.00D-01 BMatC= 2.67D-02 BMatP= 6.01D-02
 IDIUse=3 WtCom= 8.66D-01 WtEn= 1.34D-01
 Coeff-Com:  0.186D-01 0.649D-01 0.391D+00 0.526D+00
 Coeff-En:   0.000D+00 0.000D+00 0.345D+00 0.655D+00
 Coeff:      0.161D-01 0.562D-01 0.385D+00 0.543D+00
 Gap=     0.156 Goal=   None    Shift=    0.000
 RMSDP=3.33D-03 MaxDP=1.91D-01 DE=-3.26D-02 OVMax= 4.32D-02

 Cycle   5  Pass 1  IDiag  1:
 RMSU=  1.30D-03    CP:  7.01D-01  5.78D-01  7.85D-01  6.97D-01
 E= -688.802626812816     Delta-E=       -0.023964607883 Rises=F Damp=F
 DIIS: error= 1.25D-03 at cycle   5 NSaved=   5.
 NSaved= 5 IEnMin= 5 EnMin= -688.802626812816     IErMin= 5 ErrMin= 1.25D-03
 ErrMax= 1.25D-03  0.00D+00 EMaxC= 1.00D-01 BMatC= 3.50D-04 BMatP= 2.67D-02
 IDIUse=3 WtCom= 9.87D-01 WtEn= 1.25D-02
 Coeff-Com:  0.456D-02-0.124D-02 0.142D+00 0.252D+00 0.603D+00
 Coeff-En:   0.000D+00 0.000D+00 0.000D+00 0.000D+00 0.100D+01
 Coeff:      0.451D-02-0.123D-02 0.140D+00 0.249D+00 0.608D+00
 Gap=     0.154 Goal=   None    Shift=    0.000
 RMSDP=7.66D-04 MaxDP=4.62D-02 DE=-2.40D-02 OVMax= 4.60D-03

 Cycle   6  Pass 1  IDiag  1:
 RMSU=  2.30D-04    CP:  7.03D-01  5.97D-01  7.92D-01  6.75D-01  6.92D-01
 E= -688.802937942252     Delta-E=       -0.000311129436 Rises=F Damp=F
 DIIS: error= 2.58D-04 at cycle   6 NSaved=   6.
 NSaved= 6 IEnMin= 6 EnMin= -688.802937942252     IErMin= 6 ErrMin= 2.58D-04
 ErrMax= 2.58D-04  0.00D+00 EMaxC= 1.00D-01 BMatC= 1.79D-05 BMatP= 3.50D-04
 IDIUse=3 WtCom= 9.97D-01 WtEn= 2.58D-03
 Coeff-Com:  0.749D-03-0.390D-02 0.312D-01 0.654D-01 0.262D+00 0.645D+00
 Coeff-En:   0.000D+00 0.000D+00 0.000D+00 0.000D+00 0.000D+00 0.100D+01
 Coeff:      0.747D-03-0.389D-02 0.311D-01 0.652D-01 0.261D+00 0.645D+00
 Gap=     0.154 Goal=   None    Shift=    0.000
 RMSDP=1.24D-04 MaxDP=6.72D-03 DE=-3.11D-04 OVMax= 1.19D-03

 Cycle   7  Pass 1  IDiag  1:
 RMSU=  7.63D-05    CP:  7.03D-01  5.95D-01  7.89D-01  6.85D-01  7.04D-01
                    CP:  8.64D-01
 E= -688.802954344069     Delta-E=       -0.000016401816 Rises=F Damp=F
 DIIS: error= 6.48D-05 at cycle   7 NSaved=   7.
 NSaved= 7 IEnMin= 7 EnMin= -688.802954344069     IErMin= 7 ErrMin= 6.48D-05
 ErrMax= 6.48D-05  0.00D+00 EMaxC= 1.00D-01 BMatC= 1.04D-06 BMatP= 1.79D-05
 IDIUse=1 WtCom= 1.00D+00 WtEn= 0.00D+00
 Coeff-Com:  0.247D-03-0.186D-02 0.925D-02 0.207D-01 0.100D+00 0.298D+00
 Coeff-Com:  0.574D+00
 Coeff:      0.247D-03-0.186D-02 0.925D-02 0.207D-01 0.100D+00 0.298D+00
 Coeff:      0.574D+00
 Gap=     0.154 Goal=   None    Shift=    0.000
 RMSDP=4.01D-05 MaxDP=1.75D-03 DE=-1.64D-05 OVMax= 4.59D-04

 Cycle   8  Pass 1  IDiag  1:
 RMSU=  1.22D-05    CP:  7.03D-01  5.94D-01  7.90D-01  6.85D-01  7.05D-01
                    CP:  8.53D-01  8.21D-01
 E= -688.802955185562     Delta-E=       -0.000000841494 Rises=F Damp=F
 DIIS: error= 2.48D-05 at cycle   8 NSaved=   8.
 NSaved= 8 IEnMin= 8 EnMin= -688.802955185562     IErMin= 8 ErrMin= 2.48D-05
 ErrMax= 2.48D-05  0.00D+00 EMaxC= 1.00D-01 BMatC= 1.77D-07 BMatP= 1.04D-06
 IDIUse=1 WtCom= 1.00D+00 WtEn= 0.00D+00
 Coeff-Com:  0.527D-04-0.396D-03 0.342D-03 0.115D-02 0.150D-01 0.636D-01
 Coeff-Com:  0.313D+00 0.608D+00
 Coeff:      0.527D-04-0.396D-03 0.342D-03 0.115D-02 0.150D-01 0.636D-01
 Coeff:      0.313D+00 0.608D+00
 Gap=     0.154 Goal=   None    Shift=    0.000
 RMSDP=9.29D-06 MaxDP=4.60D-04 DE=-8.41D-07 OVMax= 1.73D-04

 Cycle   9  Pass 1  IDiag  1:
 RMSU=  4.36D-06    CP:  7.03D-01  5.94D-01  7.89D-01  6.85D-01  7.07D-01
                    CP:  8.61D-01  8.92D-01  8.47D-01
 E= -688.802955329068     Delta-E=       -0.000000143506 Rises=F Damp=F
 DIIS: error= 1.37D-05 at cycle   9 NSaved=   9.
 NSaved= 9 IEnMin= 9 EnMin= -688.802955329068     IErMin= 9 ErrMin= 1.37D-05
 ErrMax= 1.37D-05  0.00D+00 EMaxC= 1.00D-01 BMatC= 1.60D-08 BMatP= 1.77D-07
 IDIUse=1 WtCom= 1.00D+00 WtEn= 0.00D+00
 Coeff-Com:  0.271D-04-0.177D-03-0.709D-04-0.289D-04 0.558D-02 0.268D-01
 Coeff-Com:  0.163D+00 0.361D+00 0.444D+00
 Coeff:      0.271D-04-0.177D-03-0.709D-04-0.289D-04 0.558D-02 0.268D-01
 Coeff:      0.163D+00 0.361D+00 0.444D+00
 Gap=     0.154 Goal=   None    Shift=    0.000
 RMSDP=5.33D-06 MaxDP=2.08D-04 DE=-1.44D-07 OVMax= 7.26D-05

 Cycle  10  Pass 1  IDiag  1:
 RMSU=  1.09D-06    CP:  7.02D-01  5.94D-01  7.90D-01  6.85D-01  7.08D-01
                    CP:  8.57D-01  8.63D-01  8.13D-01  7.42D-01
 E= -688.802955346709     Delta-E=       -0.000000017641 Rises=F Damp=F
 DIIS: error= 3.31D-06 at cycle  10 NSaved=  10.
 NSaved=10 IEnMin=10 EnMin= -688.802955346709     IErMin=10 ErrMin= 3.31D-06
 ErrMax= 3.31D-06  0.00D+00 EMaxC= 1.00D-01 BMatC= 1.60D-09 BMatP= 1.60D-08
 IDIUse=1 WtCom= 1.00D+00 WtEn= 0.00D+00
 Coeff-Com:  0.406D-05-0.101D-04-0.115D-03-0.315D-03-0.213D-03 0.743D-03
 Coeff-Com:  0.199D-01 0.608D-01 0.258D+00 0.661D+00
 Coeff:      0.406D-05-0.101D-04-0.115D-03-0.315D-03-0.213D-03 0.743D-03
 Coeff:      0.199D-01 0.608D-01 0.258D+00 0.661D+00
 Gap=     0.154 Goal=   None    Shift=    0.000
 RMSDP=1.78D-06 MaxDP=8.55D-05 DE=-1.76D-08 OVMax= 1.29D-05

 Cycle  11  Pass 1  IDiag  1:
 RMSU=  2.80D-07    CP:  7.02D-01  5.94D-01  7.90D-01  6.85D-01  7.08D-01
                    CP:  8.58D-01  8.74D-01  8.24D-01  7.62D-01  6.75D-01
 E= -688.802955348445     Delta-E=       -0.000000001736 Rises=F Damp=F
 DIIS: error= 2.17D-07 at cycle  11 NSaved=  11.
 NSaved=11 IEnMin=11 EnMin= -688.802955348445     IErMin=11 ErrMin= 2.17D-07
 ErrMax= 2.17D-07  0.00D+00 EMaxC= 1.00D-01 BMatC= 3.22D-12 BMatP= 1.60D-09
 IDIUse=1 WtCom= 1.00D+00 WtEn= 0.00D+00
 Coeff-Com: -0.816D-06 0.315D-05-0.109D-04-0.318D-04-0.131D-03-0.507D-03
 Coeff-Com: -0.144D-02-0.270D-02 0.199D-01 0.576D-01 0.927D+00
 Coeff:     -0.816D-06 0.315D-05-0.109D-04-0.318D-04-0.131D-03-0.507D-03
 Coeff:     -0.144D-02-0.270D-02 0.199D-01 0.576D-01 0.927D+00
 Gap=     0.154 Goal=   None    Shift=    0.000
 RMSDP=1.16D-07 MaxDP=5.40D-06 DE=-1.74D-09 OVMax= 1.50D-06

 Cycle  12  Pass 1  IDiag  1:
 RMSU=  4.70D-08    CP:  7.02D-01  5.94D-01  7.90D-01  6.85D-01  7.08D-01
                    CP:  8.58D-01  8.75D-01  8.24D-01  7.69D-01  6.81D-01
                    CP:  1.03D+00
 E= -688.802955348446     Delta-E=       -0.000000000002 Rises=F Damp=F
 DIIS: error= 3.76D-08 at cycle  12 NSaved=  12.
 NSaved=12 IEnMin=12 EnMin= -688.802955348446     IErMin=12 ErrMin= 3.76D-08
 ErrMax= 3.76D-08  0.00D+00 EMaxC= 1.00D-01 BMatC= 3.09D-13 BMatP= 3.22D-12
 IDIUse=1 WtCom= 1.00D+00 WtEn= 0.00D+00
 Coeff-Com: -0.417D-06 0.120D-05 0.222D-05 0.694D-05-0.246D-04-0.166D-03
 Coeff-Com: -0.122D-02-0.377D-02-0.755D-02-0.216D-01 0.167D+00 0.868D+00
 Coeff:     -0.417D-06 0.120D-05 0.222D-05 0.694D-05-0.246D-04-0.166D-03
 Coeff:     -0.122D-02-0.377D-02-0.755D-02-0.216D-01 0.167D+00 0.868D+00
 Gap=     0.154 Goal=   None    Shift=    0.000
 RMSDP=3.37D-08 MaxDP=1.55D-06 DE=-1.59D-12 OVMax= 3.50D-07

 Cycle  13  Pass 1  IDiag  1:
 RMSU=  1.10D-08    CP:  7.02D-01  5.94D-01  7.90D-01  6.85D-01  7.08D-01
                    CP:  8.58D-01  8.75D-01  8.25D-01  7.70D-01  6.79D-01
                    CP:  1.09D+00  8.86D-01
 E= -688.802955348442     Delta-E=        0.000000000005 Rises=F Damp=F
 DIIS: error= 2.10D-08 at cycle  13 NSaved=  13.
 NSaved=13 IEnMin=12 EnMin= -688.802955348446     IErMin=13 ErrMin= 2.10D-08
 ErrMax= 2.10D-08  0.00D+00 EMaxC= 1.00D-01 BMatC= 7.59D-14 BMatP= 3.09D-13
 IDIUse=1 WtCom= 1.00D+00 WtEn= 0.00D+00
 Coeff-Com: -0.166D-06 0.451D-06 0.156D-05 0.470D-05-0.670D-05-0.624D-04
 Coeff-Com: -0.534D-03-0.180D-02-0.433D-02-0.130D-01 0.531D-01 0.439D+00
 Coeff-Com:  0.527D+00
 Coeff:     -0.166D-06 0.451D-06 0.156D-05 0.470D-05-0.670D-05-0.624D-04
 Coeff:     -0.534D-03-0.180D-02-0.433D-02-0.130D-01 0.531D-01 0.439D+00
 Coeff:      0.527D+00
 Gap=     0.154 Goal=   None    Shift=    0.000
 RMSDP=5.63D-09 MaxDP=2.30D-07 DE= 4.77D-12 OVMax= 1.90D-07

 SCF Done:  E(RB3LYP) =  -688.802955348     A.U. after   13 cycles
            NFock= 13  Conv=0.56D-08     -V/T= 2.0094
 KE= 6.823763710982D+02 PE=-3.552221394700D+03 EE= 1.205015639803D+03
 Leave Link  502 at Sun May 30 22:35:34 2021, MaxMem=    33554432 cpu:       506.0
 (Enter /opt/app/gaussian09/e01/g09/l801.exe)
 DoSCS=F DFT=T ScalE2(SS,OS)=  1.000000  1.000000
 ExpMin= 4.38D-02 ExpMax= 5.48D+03 ExpMxC= 8.25D+02 IAcc=3 IRadAn=         5 AccDes= 0.00D+00
 HarFok:  IExCor=  205 AccDes= 0.00D+00 IRadAn=         5 IDoV=-2 UseB2=F ITyADJ=14
 ICtDFT= 12500011 ScaDFX=  1.000000  1.000000  1.000000  1.000000
 Largest valence mixing into a core orbital is  5.68D-05
 Largest core mixing into a valence orbital is  1.19D-05
 Range of M.O.s used for correlation:    17   315
 NBasis=   320 NAE=    54 NBE=    54 NFC=    16 NFV=     0
 NROrb=    299 NOA=    38 NOB=    38 NVA=   261 NVB=   261

 **** Warning!!: The largest alpha MO coefficient is  0.13760639D+03

 Leave Link  801 at Sun May 30 22:35:37 2021, MaxMem=    33554432 cpu:         1.1
 (Enter /opt/app/gaussian09/e01/g09/l914.exe)
 RHF ground state
 MDV=    33554432 DFT=T DoStab=F Mixed=T DoRPA=T DoScal=F NonHer=T
 Would need an additional          3957400000 words for in-memory AO integral storage.
 Making orbital integer symmetry assigments:
 Orbital symmetries:
       Occupied  (A) (A) (A) (A) (A) (A) (A) (A) (A) (A) (A) (A)
                 (A) (A) (A) (A) (A) (A) (A) (A) (A) (A) (A) (A)
                 (A) (A) (A) (A) (A) (A) (A) (A) (A) (A) (A) (A)
                 (A) (A) (A) (A) (A) (A) (A) (A) (A) (A) (A) (A)
                 (A) (A) (A) (A) (A) (A)
       Virtual   (A) (A) (A) (A) (A) (A) (A) (A) (A) (A) (A) (A)
                 (A) (A) (A) (A) (A) (A) (A) (A) (A) (A) (A) (A)
                 (A) (A) (A) (A) (A) (A) (A) (A) (A) (A) (A) (A)
                 (A) (A) (A) (A) (A) (A) (A) (A) (A) (A) (A) (A)
                 (A) (A) (A) (A) (A) (A) (A) (A) (A) (A) (A) (A)
                 (A) (A) (A) (A) (A) (A) (A) (A) (A) (A) (A) (A)
                 (A) (A) (A) (A) (A) (A) (A) (A) (A) (A) (A) (A)
                 (A) (A) (A) (A) (A) (A) (A) (A) (A) (A) (A) (A)
                 (A) (A) (A) (A) (A) (A) (A) (A) (A) (A) (A) (A)
                 (A) (A) (A) (A) (A) (A) (A) (A) (A) (A) (A) (A)
                 (A) (A) (A) (A) (A) (A) (A) (A) (A) (A) (A) (A)
                 (A) (A) (A) (A) (A) (A) (A) (A) (A) (A) (A) (A)
                 (A) (A) (A) (A) (A) (A) (A) (A) (A) (A) (A) (A)
                 (A) (A) (A) (A) (A) (A) (A) (A) (A) (A) (A) (A)
                 (A) (A) (A) (A) (A) (A) (A) (A) (A) (A) (A) (A)
                 (A) (A) (A) (A) (A) (A) (A) (A) (A) (A) (A) (A)
                 (A) (A) (A) (A) (A) (A) (A) (A) (A) (A) (A) (A)
                 (A) (A) (A) (A) (A) (A) (A) (A) (A) (A) (A) (A)
                 (A) (A) (A) (A) (A) (A) (A) (A) (A) (A) (A) (A)
                 (A) (A) (A) (A) (A) (A) (A) (A) (A) (A) (A) (A)
                 (A) (A) (A) (A) (A) (A) (A) (A) (A) (A) (A) (A)
                 (A) (A) (A) (A) (A) (A) (A) (A) (A)
    40 initial guesses have been made.
 Convergence on wavefunction:    0.001000000000000
 Davidson Disk Diagonalization:  ConvIn= 1.00D-03 SkipCon=T Conv= 1.00D-03.
 Max sub-space:   200 roots to seek:    40 dimension of matrix:        19836
 Iteration     1 Dimension    40 NMult     0 NNew     40
 CISAX will form    40 AO SS matrices at one time.
 NMat=    40 NSing=    40 JSym2X= 0.
 FoFJK:  IHMeth= 1 ICntrl=       0 DoSepK=F KAlg= 0 I1Cent=   0 FoldK=F
 IRaf=         0 NMat=  80 IRICut=     100 DoRegI=T DoRafI=T ISym2E= 0.
 FoFCou: FMM=F IPFlag=           0 FMFlag=      100000 FMFlg1=           0
         NFxFlg=           0 DoJE=F BraDBF=F KetDBF=F FulRan=T
         wScrn=  0.000000 ICntrl=       0 IOpCl=  0 I1Cent=           0 NGrid=           0
         NMat0=   80 NMatS0=     40 NMatT0=    0 NMatD0=   80 NMtDS0=    0 NMtDT0=    0
 Symmetry not used in FoFCou.
 New state      2 was old state      5
 New state      5 was old state      2
 New state      6 was old state      7
 New state      7 was old state     11
 New state      8 was old state      6
 New state      9 was old state      8
 New state     10 was old state      9
 Excitation Energies [eV] at current iteration:
 Root      1 :     3.027249564453011
 Root      2 :     3.306982554249966
 Root      3 :     3.830080139424961
 Root      4 :     3.946554711751341
 Root      5 :     4.045780522500191
 Root      6 :     4.475840091803584
 Root      7 :     4.779358708267591
 Root      8 :     4.854661085491931
 Root      9 :     5.250912336855920
 Root     10 :     5.257288812828340
 Root     11 :     5.375351962562632
 Root     12 :     5.486597179597313
 Root     13 :     5.554966543316103
 Root     14 :     5.756659028836382
 Root     15 :     5.798816738393578
 Root     16 :     5.854346056366500
 Root     17 :     5.939669843671699
 Root     18 :     6.086603405958773
 Root     19 :     6.097008076762642
 Root     20 :     6.174132554092469
 Root     21 :     6.220598767744202
 Root     22 :     6.557838785218162
 Root     23 :     6.684532231175337
 Root     24 :     6.779301429180101
 Root     25 :     6.815416970425606
 Root     26 :     6.853735728500324
 Root     27 :     6.867115216160270
 Root     28 :     6.882178835715814
 Root     29 :     6.933604168408017
 Root     30 :     6.939411739367272
 Root     31 :     7.077740888786507
 Root     32 :     7.134590946232690
 Root     33 :     7.202586721741595
 Root     34 :     7.251412017916284
 Root     35 :     7.287167499248112
 Root     36 :     7.310508955392055
 Root     37 :     7.344604307471054
 Root     38 :     7.618409227349064
 Root     39 :     7.951272471737796
 Root     40 :     8.011113297381176
 Iteration     2 Dimension    60 NMult    40 NNew     20
 CISAX will form    20 AO SS matrices at one time.
 NMat=    20 NSing=    20 JSym2X= 0.
 Root      1 not converged, maximum delta is    0.033927106936383
 Root      2 not converged, maximum delta is    0.040802589166975
 Root      3 not converged, maximum delta is    0.081619822526284
 Root      4 not converged, maximum delta is    0.033831988786799
 Root      5 not converged, maximum delta is    0.078817352553143
 Root      6 not converged, maximum delta is    0.035547946501754
 New state      7 was old state      8
 Root      7 not converged, maximum delta is    0.115325217333724
 New state      8 was old state      7
 Root      8 not converged, maximum delta is    0.049829418856200
 Root      9 not converged, maximum delta is    0.088966732081073
 Root     10 not converged, maximum delta is    0.081065928469006
 Excitation Energies [eV] at current iteration:
 Root      1 :     2.954002572844829   Change is   -0.073246991608182
 Root      2 :     3.225746130716125   Change is   -0.081236423533841
 Root      3 :     3.644931801826260   Change is   -0.185148337598701
 Root      4 :     3.825817061928959   Change is   -0.120737649822382
 Root      5 :     3.849532048994750   Change is   -0.196248473505442
 Root      6 :     4.448648843534154   Change is   -0.027191248269430
 Root      7 :     4.507319619563058   Change is   -0.347341465928874
 Root      8 :     4.743949324676956   Change is   -0.035409383590634
 Root      9 :     5.054117651128318   Change is   -0.196794685727601
 Root     10 :     5.058068614699695   Change is   -0.199220198128644
 Iteration     3 Dimension    80 NMult    60 NNew     20
 CISAX will form    20 AO SS matrices at one time.
 NMat=    20 NSing=    20 JSym2X= 0.
 Root      1 not converged, maximum delta is    0.003873843902853
 Root      2 not converged, maximum delta is    0.003066923921245
 Root      3 not converged, maximum delta is    0.004624870841982
 Root      4 not converged, maximum delta is    0.009612045731194
 Root      5 not converged, maximum delta is    0.018199566988679
 Root      6 not converged, maximum delta is    0.002402805325876
 Root      7 not converged, maximum delta is    0.036203398539165
 Root      8 not converged, maximum delta is    0.003443704445869
 Root      9 not converged, maximum delta is    0.023497308168940
 Root     10 not converged, maximum delta is    0.021888157125287
 Excitation Energies [eV] at current iteration:
 Root      1 :     2.952010963144161   Change is   -0.001991609700667
 Root      2 :     3.224375540888101   Change is   -0.001370589828024
 Root      3 :     3.640640033623782   Change is   -0.004291768202478
 Root      4 :     3.817390563911848   Change is   -0.008426498017111
 Root      5 :     3.829518030097947   Change is   -0.020014018896803
 Root      6 :     4.448058426831807   Change is   -0.000590416702347
 Root      7 :     4.475912809031800   Change is   -0.031406810531258
 Root      8 :     4.743274498491874   Change is   -0.000674826185082
 Root      9 :     5.033080292379277   Change is   -0.021037358749041
 Root     10 :     5.037699142343150   Change is   -0.020369472356546
 Iteration     4 Dimension   100 NMult    80 NNew     20
 CISAX will form    20 AO SS matrices at one time.
 NMat=    20 NSing=    20 JSym2X= 0.
 Root      1 has converged.
 Root      2 has converged.
 Root      3 has converged.
 Root      4 not converged, maximum delta is    0.001806150073128
 Root      5 not converged, maximum delta is    0.007328628309315
 Root      6 has converged.
 Root      7 not converged, maximum delta is    0.004232185337898
 Root      8 has converged.
 Root      9 not converged, maximum delta is    0.004859568114580
 Root     10 not converged, maximum delta is    0.002311737867838
 Excitation Energies [eV] at current iteration:
 Root      1 :     2.951941529735138   Change is   -0.000069433409024
 Root      2 :     3.224341334758141   Change is   -0.000034206129960
 Root      3 :     3.640501214995764   Change is   -0.000138818628017
 Root      4 :     3.816963766943120   Change is   -0.000426796968727
 Root      5 :     3.825732059527091   Change is   -0.003785970570856
 Root      6 :     4.448031205227689   Change is   -0.000027221604118
 Root      7 :     4.473355635858624   Change is   -0.002557173173176
 Root      8 :     4.743249437955058   Change is   -0.000025060536816
 Root      9 :     5.031325869024162   Change is   -0.001754423355116
 Root     10 :     5.036754700904448   Change is   -0.000944441438701
 Iteration     5 Dimension   110 NMult   100 NNew     10
 CISAX will form    10 AO SS matrices at one time.
 NMat=    10 NSing=    10 JSym2X= 0.
 Root      1 has converged.
 Root      2 has converged.
 Root      3 has converged.
 Root      4 has converged.
 Root      5 not converged, maximum delta is    0.001529597285073
 Root      6 has converged.
 Root      7 not converged, maximum delta is    0.001670089127712
 Root      8 has converged.
 Root      9 not converged, maximum delta is    0.001191812991812
 Root     10 has converged.
 Excitation Energies [eV] at current iteration:
 Root      1 :     2.951941529639172   Change is   -0.000000000095966
 Root      2 :     3.224341334456320   Change is   -0.000000000301820
 Root      3 :     3.640501214992648   Change is   -0.000000000003116
 Root      4 :     3.816945152261690   Change is   -0.000018614681431
 Root      5 :     3.825417455778981   Change is   -0.000314603748109
 Root      6 :     4.448031205157975   Change is   -0.000000000069713
 Root      7 :     4.473002463957338   Change is   -0.000353171901285
 Root      8 :     4.743249437248853   Change is   -0.000000000706205
 Root      9 :     5.031088094181959   Change is   -0.000237774842202
 Root     10 :     5.036682500324303   Change is   -0.000072200580146
 Iteration     6 Dimension   116 NMult   110 NNew      6
 CISAX will form     6 AO SS matrices at one time.
 NMat=     6 NSing=     6 JSym2X= 0.
 Root      1 has converged.
 Root      2 has converged.
 Root      3 has converged.
 Root      4 has converged.
 Root      5 has converged.
 Root      6 has converged.
 Root      7 has converged.
 Root      8 has converged.
 Root      9 has converged.
 Root     10 has converged.
 Excitation Energies [eV] at current iteration:
 Root      1 :     2.951941529607619   Change is   -0.000000000031552
 Root      2 :     3.224341334381541   Change is   -0.000000000074779
 Root      3 :     3.640501214988944   Change is   -0.000000000003704
 Root      4 :     3.816945152261410   Change is   -0.000000000000280
 Root      5 :     3.825400351790688   Change is   -0.000017103988293
 Root      6 :     4.448031205149992   Change is   -0.000000000007984
 Root      7 :     4.472990263116442   Change is   -0.000012200840897
 Root      8 :     4.743249437106890   Change is   -0.000000000141962
 Root      9 :     5.031077423930872   Change is   -0.000010670251088
 Root     10 :     5.036682500323193   Change is   -0.000000000001109
 Convergence achieved on expansion vectors.
 ***********************************************************************
 Excited states from <AA,BB:AA,BB> singles matrix:
 ***********************************************************************
 
 1PDM for each excited state written to RWF  633
 Ground to excited state transition densities written to RWF  633
 Ground to excited state transition electric dipole moments (Au):
       state          X           Y           Z        Dip. S.      Osc.
         1        -0.0007     -0.0000     -0.0000      0.0000      0.0000
         2         0.0000      0.0000     -0.0000      0.0000      0.0000
         3        -0.0000      0.0000     -0.0000      0.0000      0.0000
         4        -1.1243     -0.0000      0.0000      1.2641      0.1182
         5        -0.0000     -0.0000      0.0003      0.0000      0.0000
         6        -0.0004     -0.0000      0.0000      0.0000      0.0000
         7         0.0000     -1.2686     -0.0000      1.6094      0.1764
         8        -0.0026      0.0002     -0.0000      0.0000      0.0000
         9        -0.0000      0.2861     -0.0000      0.0818      0.0101
        10        -1.9822     -0.0000      0.0000      3.9292      0.4849
 Ground to excited state transition velocity dipole moments (Au):
       state          X           Y           Z        Dip. S.      Osc.
         1         0.0001      0.0000     -0.0000      0.0000      0.0000
         2        -0.0000     -0.0000      0.0000      0.0000      0.0000
         3         0.0000     -0.0000      0.0000      0.0000      0.0000
         4         0.1611      0.0000      0.0000      0.0260      0.1234
         5         0.0000      0.0000     -0.0000      0.0000      0.0000
         6         0.0001      0.0000     -0.0000      0.0000      0.0000
         7        -0.0000      0.1926      0.0000      0.0371      0.1504
         8         0.0004     -0.0000     -0.0000      0.0000      0.0000
         9         0.0000     -0.0590      0.0000      0.0035      0.0125
        10         0.3502      0.0000     -0.0000      0.1227      0.4418
 Ground to excited state transition magnetic dipole moments (Au):
       state          X           Y           Z
         1        -0.0000     -0.7968     -0.0001
         2        -0.0000      0.0000     -0.0001
         3         0.0000      0.0001     -1.4401
         4        -0.0000      0.0005      0.0000
         5         0.0000     -0.0000      0.0000
         6        -0.0000     -0.0000      0.0016
         7        -0.0000     -0.0001     -0.0000
         8        -0.0000     -0.4831     -0.0000
         9         0.0002      0.0000      0.0000
        10         0.0000      0.0006      0.0000
 Ground to excited state transition velocity quadrupole moments (Au):
       state          XX          YY          ZZ          XY          XZ          YZ
         1        -0.0000     -0.0000     -0.0000     -0.0000      0.0403      0.0000
         2        -0.0001      0.0000     -0.0000     -0.0001     -0.0000     -0.0000
         3        -0.0000      0.0000     -0.0000     -0.3212     -0.0000      0.0000
         4         0.0000     -0.0000      0.0000      0.0000      0.0001     -0.0000
         5        -0.8532      0.2655     -0.0330      0.0000     -0.0000      0.0000
         6         0.0000      0.0000     -0.0000      0.0003      0.0000     -0.0000
         7         0.0000      0.0000      0.0000     -0.0000     -0.0000     -0.0003
         8         0.0000     -0.0000      0.0000      0.0000      0.0182     -0.0000
         9        -0.0000      0.0000      0.0000     -0.0000      0.0001     -0.0002
        10        -0.0000     -0.0000     -0.0000      0.0000      0.0004     -0.0000
 <0|del|b> * <b|rxdel|0> + <0|del|b> * <b|delr+rdel|0>
 Rotatory Strengths (R) in cgs (10**-40 erg-esu-cm/Gauss)
       state          XX          YY          ZZ    R(velocity)    E-M Angle
         1        -0.0025     -0.0000     -0.0023     -0.0016       90.00
         2        -0.0000     -0.0000      0.0000     -0.0000       90.00
         3        -0.0300     -0.0191     -0.0000     -0.0164       90.00
         4         0.0000     -0.0166      0.0031     -0.0045       90.00
         5        -0.0000      0.0000     -0.0000     -0.0000       90.00
         6        -0.0000     -0.0000     -0.0000     -0.0000       90.00
         7        -0.0159      0.0000     -0.0314     -0.0157       90.00
         8         0.0392     -0.0000      0.0363      0.0252       90.00
         9         0.0046      0.0000     -0.0084     -0.0013       90.00
        10         0.0000     -0.0011      0.0235      0.0075       90.00
 1/2[<0|r|b>*<b|rxdel|0> + (<0|rxdel|b>*<b|r|0>)*]
 Rotatory Strengths (R) in cgs (10**-40 erg-esu-cm/Gauss)
       state          XX          YY          ZZ     R(length)
         1        -0.0000     -0.0114     -0.0000     -0.0038
         2         0.0000     -0.0000     -0.0000     -0.0000
         3         0.0000     -0.0000     -0.0458     -0.0153
         4        -0.0132      0.0000     -0.0000     -0.0044
         5         0.0000     -0.0000     -0.0000     -0.0000
         6        -0.0000     -0.0000     -0.0000     -0.0000
         7         0.0000     -0.0512     -0.0000     -0.0171
         8        -0.0000      0.0765     -0.0000      0.0255
         9         0.0000     -0.0034      0.0000     -0.0011
        10         0.0235      0.0000     -0.0000      0.0078
  1/2[<0|del|b>*<b|r|0> + (<0|r|b>*<b|del|0>)*] (Au)
       state          X           Y           Z        Dip. S.   Osc.(frdel)
         1        -0.0000     -0.0000      0.0000      0.0000      0.0000
         2        -0.0000     -0.0000     -0.0000      0.0000      0.0000
         3        -0.0000     -0.0000     -0.0000      0.0000      0.0000
         4        -0.1811     -0.0000      0.0000      0.1811      0.1208
         5        -0.0000     -0.0000     -0.0000      0.0000      0.0000
         6        -0.0000     -0.0000     -0.0000      0.0000      0.0000
         7        -0.0000     -0.2443     -0.0000      0.2443      0.1628
         8        -0.0000     -0.0000      0.0000      0.0000      0.0000
         9        -0.0000     -0.0169     -0.0000      0.0169      0.0112
        10        -0.6943     -0.0000     -0.0000      0.6943      0.4628

 Excitation energies and oscillator strengths:
 
 Excited State   1:      Singlet-A      2.9519 eV  420.01 nm  f=0.0000  <S**2>=0.000
      50 -> 56         0.11459
      54 -> 55         0.69420
 This state for optimization and/or second-order correction.
 Total Energy, E(TD-HF/TD-KS) =  -688.694473489    
 Copying the excited state density for this state as the 1-particle RhoCI density.
 
 Excited State   2:      Singlet-A      3.2243 eV  384.53 nm  f=0.0000  <S**2>=0.000
      50 -> 55         0.68166
      54 -> 56         0.16882
 
 Excited State   3:      Singlet-A      3.6405 eV  340.57 nm  f=0.0000  <S**2>=0.000
      52 -> 55         0.70154
 
 Excited State   4:      Singlet-A      3.8169 eV  324.83 nm  f=0.1182  <S**2>=0.000
      51 -> 55         0.68520
      52 -> 56        -0.16605
 
 Excited State   5:      Singlet-A      3.8254 eV  324.11 nm  f=0.0000  <S**2>=0.000
      49 -> 56        -0.14127
      53 -> 55         0.68737
 
 Excited State   6:      Singlet-A      4.4480 eV  278.74 nm  f=0.0000  <S**2>=0.000
      50 -> 55        -0.17453
      54 -> 56         0.68257
 
 Excited State   7:      Singlet-A      4.4730 eV  277.18 nm  f=0.1764  <S**2>=0.000
      49 -> 55         0.68530
      52 -> 57        -0.12657
 
 Excited State   8:      Singlet-A      4.7432 eV  261.39 nm  f=0.0000  <S**2>=0.000
      50 -> 56         0.69039
      54 -> 55        -0.12187
 
 Excited State   9:      Singlet-A      5.0311 eV  246.44 nm  f=0.0101  <S**2>=0.000
      52 -> 57         0.10320
      53 -> 56         0.69210
 
 Excited State  10:      Singlet-A      5.0367 eV  246.16 nm  f=0.4849  <S**2>=0.000
      51 -> 55         0.15914
      52 -> 56         0.63918
      53 -> 57        -0.24409
 SavETr:  write IOETrn=   770 NScale= 10 NData=  16 NLR=1 NState=   10 LETran=     190.
 Leave Link  914 at Sun May 30 23:08:58 2021, MaxMem=    33554432 cpu:      1999.7
 (Enter /opt/app/gaussian09/e01/g09/l601.exe)
 Copying SCF densities to generalized density rwf, IOpCl= 0 IROHF=0.

 **********************************************************************

            Population analysis using the SCF density.

 **********************************************************************

 Orbital symmetries:
       Occupied  (A) (A) (A) (A) (A) (A) (A) (A) (A) (A) (A) (A)
                 (A) (A) (A) (A) (A) (A) (A) (A) (A) (A) (A) (A)
                 (A) (A) (A) (A) (A) (A) (A) (A) (A) (A) (A) (A)
                 (A) (A) (A) (A) (A) (A) (A) (A) (A) (A) (A) (A)
                 (A) (A) (A) (A) (A) (A)
       Virtual   (A) (A) (A) (A) (A) (A) (A) (A) (A) (A) (A) (A)
                 (A) (A) (A) (A) (A) (A) (A) (A) (A) (A) (A) (A)
                 (A) (A) (A) (A) (A) (A) (A) (A) (A) (A) (A) (A)
                 (A) (A) (A) (A) (A) (A) (A) (A) (A) (A) (A) (A)
                 (A) (A) (A) (A) (A) (A) (A) (A) (A) (A) (A) (A)
                 (A) (A) (A) (A) (A) (A) (A) (A) (A) (A) (A) (A)
                 (A) (A) (A) (A) (A) (A) (A) (A) (A) (A) (A) (A)
                 (A) (A) (A) (A) (A) (A) (A) (A) (A) (A) (A) (A)
                 (A) (A) (A) (A) (A) (A) (A) (A) (A) (A) (A) (A)
                 (A) (A) (A) (A) (A) (A) (A) (A) (A) (A) (A) (A)
                 (A) (A) (A) (A) (A) (A) (A) (A) (A) (A) (A) (A)
                 (A) (A) (A) (A) (A) (A) (A) (A) (A) (A) (A) (A)
                 (A) (A) (A) (A) (A) (A) (A) (A) (A) (A) (A) (A)
                 (A) (A) (A) (A) (A) (A) (A) (A) (A) (A) (A) (A)
                 (A) (A) (A) (A) (A) (A) (A) (A) (A) (A) (A) (A)
                 (A) (A) (A) (A) (A) (A) (A) (A) (A) (A) (A) (A)
                 (A) (A) (A) (A) (A) (A) (A) (A) (A) (A) (A) (A)
                 (A) (A) (A) (A) (A) (A) (A) (A) (A) (A) (A) (A)
                 (A) (A) (A) (A) (A) (A) (A) (A) (A) (A) (A) (A)
                 (A) (A) (A) (A) (A) (A) (A) (A) (A) (A) (A) (A)
                 (A) (A) (A) (A) (A) (A) (A) (A) (A) (A) (A) (A)
                 (A) (A) (A) (A) (A) (A) (A) (A) (A)
 The electronic state is 1-A.
 Alpha  occ. eigenvalues --  -19.16044 -19.16044 -10.29727 -10.29727 -10.22702
 Alpha  occ. eigenvalues --  -10.22702 -10.22651 -10.22651 -10.22262 -10.22262
 Alpha  occ. eigenvalues --  -10.22208 -10.22208 -10.21826 -10.21826 -10.21826
 Alpha  occ. eigenvalues --  -10.21826  -1.05953  -1.05761  -0.89467  -0.88302
 Alpha  occ. eigenvalues --   -0.81386  -0.78100  -0.77869  -0.77226  -0.69059
 Alpha  occ. eigenvalues --   -0.67065  -0.64417  -0.61910  -0.58644  -0.56266
 Alpha  occ. eigenvalues --   -0.55922  -0.50336  -0.49167  -0.48826  -0.48535
 Alpha  occ. eigenvalues --   -0.45413  -0.45210  -0.45145  -0.44853  -0.44197
 Alpha  occ. eigenvalues --   -0.43715  -0.41264  -0.40102  -0.39310  -0.37768
 Alpha  occ. eigenvalues --   -0.37729  -0.36683  -0.36582  -0.28813  -0.28201
 Alpha  occ. eigenvalues --   -0.28062  -0.27755  -0.27646  -0.27021
 Alpha virt. eigenvalues --   -0.11622  -0.07284  -0.03721  -0.02682   0.00119
 Alpha virt. eigenvalues --    0.00490   0.02221   0.02368   0.02646   0.03366
 Alpha virt. eigenvalues --    0.03654   0.04625   0.04879   0.04906   0.05294
 Alpha virt. eigenvalues --    0.06191   0.06714   0.06740   0.07712   0.08514
 Alpha virt. eigenvalues --    0.09104   0.09386   0.09984   0.11313   0.11738
 Alpha virt. eigenvalues --    0.12214   0.12217   0.12859   0.13584   0.13635
 Alpha virt. eigenvalues --    0.13997   0.15049   0.15948   0.16442   0.16974
 Alpha virt. eigenvalues --    0.17369   0.17389   0.17517   0.17842   0.18540
 Alpha virt. eigenvalues --    0.18711   0.18752   0.19068   0.19708   0.20212
 Alpha virt. eigenvalues --    0.20317   0.21062   0.21339   0.21670   0.21744
 Alpha virt. eigenvalues --    0.22655   0.23077   0.23232   0.24059   0.25124
 Alpha virt. eigenvalues --    0.25544   0.26015   0.26089   0.26728   0.26988
 Alpha virt. eigenvalues --    0.27396   0.27785   0.27928   0.28633   0.29393
 Alpha virt. eigenvalues --    0.30160   0.30843   0.31009   0.32001   0.32042
 Alpha virt. eigenvalues --    0.32110   0.32184   0.33200   0.33505   0.33958
 Alpha virt. eigenvalues --    0.34866   0.36585   0.37728   0.38315   0.39254
 Alpha virt. eigenvalues --    0.39564   0.39979   0.41382   0.41948   0.45238
 Alpha virt. eigenvalues --    0.47233   0.48743   0.49437   0.52107   0.58943
 Alpha virt. eigenvalues --    0.60062   0.63236   0.65464   0.65773   0.66598
 Alpha virt. eigenvalues --    0.66640   0.68244   0.68714   0.68919   0.68944
 Alpha virt. eigenvalues --    0.70974   0.71396   0.71768   0.72237   0.72319
 Alpha virt. eigenvalues --    0.72546   0.73468   0.75354   0.75974   0.76640
 Alpha virt. eigenvalues --    0.77014   0.77831   0.78189   0.79970   0.80968
 Alpha virt. eigenvalues --    0.81928   0.83537   0.84457   0.88942   0.89303
 Alpha virt. eigenvalues --    0.89487   0.91340   0.91890   0.92586   0.93326
 Alpha virt. eigenvalues --    0.94728   1.00039   1.00289   1.02902   1.03983
 Alpha virt. eigenvalues --    1.05775   1.05977   1.10918   1.11135   1.11351
 Alpha virt. eigenvalues --    1.14029   1.15500   1.15880   1.18506   1.18524
 Alpha virt. eigenvalues --    1.18611   1.18707   1.21962   1.22574   1.23504
 Alpha virt. eigenvalues --    1.23615   1.24352   1.25988   1.26368   1.26596
 Alpha virt. eigenvalues --    1.31424   1.33018   1.33603   1.34022   1.35194
 Alpha virt. eigenvalues --    1.36107   1.37025   1.39505   1.39771   1.41375
 Alpha virt. eigenvalues --    1.43263   1.44353   1.44876   1.45626   1.45646
 Alpha virt. eigenvalues --    1.46152   1.47128   1.47665   1.49958   1.51089
 Alpha virt. eigenvalues --    1.53382   1.61551   1.64752   1.66528   1.67597
 Alpha virt. eigenvalues --    1.71407   1.74386   1.74623   1.79431   1.79796
 Alpha virt. eigenvalues --    1.81614   1.82488   1.84060   1.86182   1.86356
 Alpha virt. eigenvalues --    1.89560   1.91712   1.91932   1.94023   1.95656
 Alpha virt. eigenvalues --    1.98012   2.00553   2.02586   2.04475   2.05775
 Alpha virt. eigenvalues --    2.06424   2.06564   2.07129   2.13493   2.13574
 Alpha virt. eigenvalues --    2.14805   2.15670   2.16537   2.18780   2.20661
 Alpha virt. eigenvalues --    2.23195   2.24680   2.26306   2.27019   2.27677
 Alpha virt. eigenvalues --    2.27744   2.28824   2.28964   2.37943   2.42141
 Alpha virt. eigenvalues --    2.44423   2.47709   2.50965   2.53761   2.54358
 Alpha virt. eigenvalues --    2.56754   2.58866   2.58992   2.63650   2.68737
 Alpha virt. eigenvalues --    2.70383   2.70707   2.70829   2.72921   2.73065
 Alpha virt. eigenvalues --    2.75674   2.78017   2.82648   2.84673   2.85700
 Alpha virt. eigenvalues --    2.88311   2.96599   3.04560   3.09376   3.15598
 Alpha virt. eigenvalues --    3.22039   3.24433   3.34439   3.41219   3.47864
 Alpha virt. eigenvalues --    4.21264   4.22308   4.23160   4.28011   4.28042
 Alpha virt. eigenvalues --    4.31440   4.31693   4.31888   4.40759   4.41813
 Alpha virt. eigenvalues --    4.41818   4.45118   4.66354   4.70742   4.73883
 Alpha virt. eigenvalues --    5.06593
     Molecular Orbital Coefficients:
                           1         2         3         4         5
                           O         O         O         O         O
     Eigenvalues --   -19.16044 -19.16044 -10.29727 -10.29727 -10.22702
   1 1   C  1S          0.00001   0.00000  -0.00003  -0.00001   0.00048
   2        2S          0.00004   0.00001  -0.00011  -0.00001  -0.00008
   3        2PX         0.00001   0.00001   0.00003  -0.00008  -0.00004
   4        2PY         0.00000   0.00000  -0.00002   0.00000  -0.00001
   5        2PZ         0.00000   0.00000  -0.00000   0.00000   0.00000
   6        3S         -0.00041   0.00008   0.00212  -0.00098   0.00039
   7        3PX        -0.00034   0.00000   0.00094  -0.00029  -0.00003
   8        3PY        -0.00015   0.00001   0.00058   0.00022  -0.00006
   9        3PZ         0.00000  -0.00000  -0.00000   0.00000  -0.00000
  10        4S          0.00461   0.00394  -0.02566  -0.01411   0.00809
  11        4PX         0.00439   0.00019  -0.00904  -0.00258   0.00101
  12        4PY        -0.00661  -0.00032   0.00823   0.00105  -0.00217
  13        4PZ        -0.00000   0.00000   0.00000   0.00000  -0.00000
  14        5XX        -0.00001  -0.00001   0.00000  -0.00003  -0.00001
  15        5YY        -0.00000   0.00000   0.00002   0.00000  -0.00001
  16        5ZZ         0.00001   0.00001  -0.00003  -0.00003  -0.00005
  17        5XY         0.00001   0.00000  -0.00003   0.00001   0.00000
  18        5XZ         0.00000   0.00000  -0.00000  -0.00000  -0.00000
  19        5YZ        -0.00000  -0.00000   0.00000   0.00000  -0.00000
  20 2   C  1S         -0.00001   0.00000  -0.00001  -0.00005   0.01537
  21        2S         -0.00005   0.00001   0.00009  -0.00024   0.00056
  22        2PX         0.00000   0.00000  -0.00012   0.00003  -0.00007
  23        2PY        -0.00002  -0.00001  -0.00008  -0.00004  -0.00008
  24        2PZ        -0.00000  -0.00000   0.00000  -0.00000   0.00000
  25        3S          0.00032  -0.00034  -0.00539   0.00252   0.00286
  26        3PX        -0.00002  -0.00008  -0.00093   0.00005   0.00118
  27        3PY         0.00026  -0.00010  -0.00213   0.00167   0.00045
  28        3PZ         0.00000   0.00000   0.00000   0.00000  -0.00000
  29        4S         -0.00317   0.00005  -0.01889   0.05117   0.09002
  30        4PX         0.00856   0.00162  -0.02304   0.00159   0.02097
  31        4PY        -0.00047   0.00014   0.00462   0.00771   0.00751
  32        4PZ        -0.00000  -0.00000   0.00001  -0.00000  -0.00000
  33        5XX         0.00002   0.00001  -0.00007   0.00002  -0.00029
  34        5YY        -0.00001  -0.00001  -0.00010   0.00004  -0.00022
  35        5ZZ         0.00000   0.00002  -0.00000  -0.00010  -0.00018
  36        5XY        -0.00003  -0.00002  -0.00000   0.00004  -0.00007
  37        5XZ         0.00000   0.00000   0.00000  -0.00000   0.00000
  38        5YZ         0.00000   0.00000   0.00000  -0.00000  -0.00000
  39 3   C  1S         -0.00001   0.00000  -0.00126   0.00138   0.49794
  40        2S          0.00005   0.00006   0.00027  -0.00001   0.02548
  41        2PX        -0.00001   0.00001   0.00025  -0.00019   0.00007
  42        2PY        -0.00001   0.00005  -0.00005  -0.00000  -0.00012
  43        2PZ         0.00000   0.00000  -0.00000   0.00000  -0.00000
  44        3S         -0.00050  -0.00003  -0.00979   0.00256  -0.01073
  45        3PX        -0.00011  -0.00045  -0.01067   0.00374  -0.00034
  46        3PY        -0.00018  -0.00018  -0.00347  -0.00017   0.00194
  47        3PZ        -0.00000  -0.00000   0.00000  -0.00000   0.00000
  48        4S          0.00316  -0.00196  -0.12869  -0.01331  -0.05038
  49        4PX         0.00489   0.00111  -0.02067   0.02010   0.04956
  50        4PY         0.00668   0.00038  -0.07174   0.01206   0.03071
  51        4PZ         0.00000   0.00000  -0.00001  -0.00000  -0.00000
  52        5XX        -0.00001  -0.00001   0.00021  -0.00018  -0.00449
  53        5YY        -0.00011  -0.00004   0.00010  -0.00013  -0.00463
  54        5ZZ        -0.00002   0.00001   0.00011  -0.00008  -0.00453
  55        5XY         0.00005   0.00002  -0.00016   0.00006   0.00006
  56        5XZ         0.00000   0.00000  -0.00000   0.00000   0.00000
  57        5YZ        -0.00000  -0.00000   0.00000  -0.00000  -0.00000
  58 4   C  1S          0.00001   0.00000   0.00132   0.00133   0.49795
  59        2S         -0.00004   0.00007  -0.00027   0.00000   0.02548
  60        2PX         0.00001   0.00000  -0.00025  -0.00018   0.00007
  61        2PY        -0.00002  -0.00004  -0.00005   0.00000   0.00012
  62        2PZ        -0.00000   0.00000  -0.00000   0.00000  -0.00000
  63        3S          0.00047  -0.00015   0.00988   0.00217  -0.01073
  64        3PX        -0.00000  -0.00047   0.01080   0.00332  -0.00033
  65        3PY        -0.00013   0.00021  -0.00346   0.00030  -0.00194
  66        3PZ         0.00000  -0.00000  -0.00000  -0.00000   0.00000
  67        4S         -0.00353  -0.00116   0.12807  -0.01834  -0.05039
  68        4PX        -0.00449   0.00223   0.02144   0.01928   0.04956
  69        4PY         0.00640  -0.00194  -0.07215  -0.00924  -0.03071
  70        4PZ        -0.00000   0.00000   0.00000  -0.00000  -0.00001
  71        5XX         0.00001  -0.00001  -0.00022  -0.00017  -0.00449
  72        5YY         0.00010  -0.00007  -0.00010  -0.00012  -0.00463
  73        5ZZ         0.00002   0.00000  -0.00011  -0.00008  -0.00453
  74        5XY         0.00004  -0.00003  -0.00016  -0.00006  -0.00006
  75        5XZ        -0.00000   0.00000   0.00000   0.00000  -0.00000
  76        5YZ        -0.00000   0.00000   0.00000   0.00000   0.00000
  77 5   C  1S          0.00001   0.00000   0.00001  -0.00005   0.01537
  78        2S          0.00005  -0.00001  -0.00010  -0.00023   0.00056
  79        2PX        -0.00000   0.00000   0.00012   0.00003  -0.00007
  80        2PY        -0.00002   0.00002  -0.00008   0.00004   0.00008
  81        2PZ         0.00000  -0.00000  -0.00000  -0.00000   0.00000
  82        3S         -0.00039  -0.00025   0.00548   0.00231   0.00286
  83        3PX         0.00000  -0.00009   0.00093   0.00001   0.00118
  84        3PY         0.00027   0.00003  -0.00219  -0.00158  -0.00045
  85        3PZ        -0.00000   0.00000  -0.00000   0.00000  -0.00000
  86        4S          0.00309  -0.00070   0.02088   0.05039   0.09001
  87        4PX        -0.00793   0.00360   0.02309   0.00068   0.02097
  88        4PY        -0.00049  -0.00002   0.00431  -0.00789  -0.00751
  89        4PZ         0.00000  -0.00000  -0.00001  -0.00000  -0.00001
  90        5XX        -0.00002   0.00002   0.00007   0.00002  -0.00029
  91        5YY         0.00000  -0.00001   0.00010   0.00003  -0.00022
  92        5ZZ         0.00000   0.00002  -0.00000  -0.00010  -0.00018
  93        5XY        -0.00002   0.00003  -0.00000  -0.00004   0.00007
  94        5XZ        -0.00000   0.00000  -0.00000  -0.00000   0.00000
  95        5YZ         0.00000  -0.00000   0.00000   0.00000   0.00000
  96 6   C  1S         -0.00001   0.00000   0.00003  -0.00001   0.00048
  97        2S         -0.00003   0.00001   0.00011  -0.00001  -0.00008
  98        2PX        -0.00000   0.00001  -0.00004  -0.00008  -0.00004
  99        2PY         0.00000  -0.00000  -0.00002  -0.00000   0.00001
 100        2PZ        -0.00000   0.00000   0.00000   0.00000   0.00000
 101        3S          0.00041  -0.00002  -0.00215  -0.00090   0.00039
 102        3PX         0.00033  -0.00008  -0.00095  -0.00025  -0.00003
 103        3PY        -0.00014   0.00003   0.00057  -0.00025   0.00006
 104        3PZ        -0.00000  -0.00000   0.00000  -0.00000  -0.00000
 105        4S         -0.00355   0.00492   0.02509  -0.01511   0.00809
 106        4PX        -0.00422   0.00123   0.00893  -0.00293   0.00101
 107        4PY        -0.00635   0.00187   0.00819  -0.00137   0.00217
 108        4PZ         0.00000  -0.00000  -0.00000   0.00000   0.00000
 109        5XX         0.00001  -0.00001  -0.00000  -0.00003  -0.00001
 110        5YY         0.00000  -0.00000  -0.00001   0.00001  -0.00001
 111        5ZZ        -0.00001   0.00001   0.00003  -0.00003  -0.00005
 112        5XY         0.00001  -0.00001  -0.00003  -0.00001  -0.00000
 113        5XZ        -0.00000   0.00000   0.00000  -0.00000  -0.00000
 114        5YZ        -0.00000  -0.00000   0.00000  -0.00000   0.00000
 115 7   C  1S         -0.00002  -0.00002  -0.68853   0.71596  -0.00001
 116        2S          0.00026   0.00021  -0.03553   0.03650  -0.00000
 117        2PX         0.00000  -0.00000   0.00000   0.00000   0.00018
 118        2PY        -0.00024  -0.00019   0.00055  -0.00059  -0.00000
 119        2PZ        -0.00000  -0.00000   0.00000  -0.00000   0.00000
 120        3S         -0.00006   0.00024   0.02249  -0.01639   0.00001
 121        3PX         0.00000   0.00000  -0.00000  -0.00000  -0.00350
 122        3PY         0.00131   0.00123   0.01169  -0.00543   0.00001
 123        3PZ         0.00000   0.00000   0.00000  -0.00000  -0.00000
 124        4S         -0.00405  -0.00287   0.00095  -0.04216  -0.00008
 125        4PX         0.00000  -0.00000  -0.00000  -0.00000   0.00700
 126        4PY        -0.00313  -0.00265   0.01146  -0.01717  -0.00003
 127        4PZ        -0.00000  -0.00000   0.00000   0.00000  -0.00000
 128        5XX        -0.00009  -0.00009   0.00611  -0.00637  -0.00000
 129        5YY        -0.00041  -0.00029   0.00537  -0.00569  -0.00000
 130        5ZZ        -0.00016  -0.00012   0.00603  -0.00642  -0.00000
 131        5XY        -0.00000  -0.00000  -0.00000   0.00000   0.00018
 132        5XZ         0.00000  -0.00000  -0.00000   0.00000   0.00000
 133        5YZ        -0.00000  -0.00000  -0.00000   0.00000   0.00000
 134 8   C  1S          0.00002  -0.00002   0.71605   0.68844  -0.00001
 135        2S         -0.00021   0.00026   0.03694   0.03508  -0.00000
 136        2PX         0.00000   0.00000  -0.00000  -0.00000   0.00018
 137        2PY        -0.00019   0.00024   0.00057   0.00056   0.00000
 138        2PZ         0.00000  -0.00000  -0.00000  -0.00000  -0.00000
 139        3S          0.00011   0.00022  -0.02312  -0.01549   0.00001
 140        3PX        -0.00000  -0.00000   0.00000   0.00000  -0.00350
 141        3PY         0.00098  -0.00150   0.01189   0.00497  -0.00001
 142        3PZ        -0.00000   0.00000  -0.00000  -0.00000   0.00000
 143        4S          0.00326  -0.00375  -0.00260  -0.04209  -0.00008
 144        4PX         0.00000  -0.00000   0.00000   0.00000   0.00700
 145        4PY        -0.00242   0.00331   0.01213   0.01671   0.00003
 146        4PZ         0.00000  -0.00000  -0.00000  -0.00000   0.00000
 147        5XX         0.00007  -0.00011  -0.00636  -0.00612  -0.00000
 148        5YY         0.00033  -0.00038  -0.00559  -0.00547  -0.00000
 149        5ZZ         0.00013  -0.00015  -0.00628  -0.00617  -0.00000
 150        5XY         0.00000  -0.00000   0.00000   0.00000  -0.00018
 151        5XZ         0.00000  -0.00000  -0.00000  -0.00000   0.00000
 152        5YZ        -0.00000   0.00000  -0.00000  -0.00000   0.00000
 153 9   C  1S          0.00001   0.00000   0.00132   0.00133  -0.49453
 154        2S         -0.00004   0.00007  -0.00027   0.00000  -0.02531
 155        2PX        -0.00001  -0.00000   0.00025   0.00018   0.00007
 156        2PY        -0.00002  -0.00004  -0.00005   0.00000  -0.00012
 157        2PZ        -0.00000   0.00000  -0.00000   0.00000  -0.00000
 158        3S          0.00047  -0.00015   0.00988   0.00217   0.01067
 159        3PX         0.00000   0.00047  -0.01080  -0.00332  -0.00033
 160        3PY        -0.00013   0.00021  -0.00346   0.00030   0.00193
 161        3PZ         0.00000  -0.00000   0.00000  -0.00000  -0.00000
 162        4S         -0.00353  -0.00116   0.12807  -0.01834   0.05032
 163        4PX         0.00449  -0.00223  -0.02144  -0.01928   0.04951
 164        4PY         0.00640  -0.00194  -0.07215  -0.00924   0.03065
 165        4PZ        -0.00000   0.00000   0.00001  -0.00000   0.00000
 166        5XX         0.00001  -0.00001  -0.00022  -0.00017   0.00445
 167        5YY         0.00010  -0.00007  -0.00010  -0.00012   0.00460
 168        5ZZ         0.00002   0.00000  -0.00011  -0.00008   0.00449
 169        5XY        -0.00004   0.00003   0.00016   0.00006  -0.00006
 170        5XZ         0.00000  -0.00000  -0.00000   0.00000   0.00000
 171        5YZ        -0.00000   0.00000   0.00000  -0.00000  -0.00000
 172 10  C  1S         -0.00001   0.00000  -0.00126   0.00138  -0.49446
 173        2S          0.00005   0.00006   0.00027  -0.00001  -0.02531
 174        2PX         0.00001  -0.00001  -0.00025   0.00019   0.00007
 175        2PY        -0.00001   0.00005  -0.00005  -0.00000   0.00012
 176        2PZ         0.00000   0.00000  -0.00000   0.00000   0.00000
 177        3S         -0.00050  -0.00003  -0.00979   0.00256   0.01067
 178        3PX         0.00011   0.00045   0.01067  -0.00374  -0.00033
 179        3PY        -0.00018  -0.00018  -0.00347  -0.00017  -0.00193
 180        3PZ        -0.00000  -0.00000   0.00000  -0.00000  -0.00000
 181        4S          0.00316  -0.00196  -0.12869  -0.01331   0.05034
 182        4PX        -0.00489  -0.00111   0.02067  -0.02010   0.04951
 183        4PY         0.00668   0.00038  -0.07174   0.01206  -0.03064
 184        4PZ         0.00000  -0.00000   0.00000  -0.00001   0.00001
 185        5XX        -0.00001  -0.00001   0.00021  -0.00018   0.00445
 186        5YY        -0.00011  -0.00004   0.00010  -0.00013   0.00460
 187        5ZZ        -0.00002   0.00001   0.00011  -0.00008   0.00449
 188        5XY        -0.00005  -0.00002   0.00016  -0.00006   0.00006
 189        5XZ        -0.00000  -0.00000   0.00000  -0.00000  -0.00000
 190        5YZ        -0.00000  -0.00000   0.00000  -0.00000   0.00000
 191 11  C  1S         -0.00001   0.00000  -0.00001  -0.00005  -0.01526
 192        2S         -0.00005   0.00001   0.00009  -0.00024  -0.00056
 193        2PX        -0.00000  -0.00000   0.00012  -0.00003  -0.00007
 194        2PY        -0.00002  -0.00001  -0.00008  -0.00004   0.00008
 195        2PZ        -0.00000  -0.00000   0.00000  -0.00000  -0.00000
 196        3S          0.00032  -0.00034  -0.00539   0.00252  -0.00285
 197        3PX         0.00002   0.00008   0.00093  -0.00005   0.00117
 198        3PY         0.00026  -0.00010  -0.00213   0.00167  -0.00045
 199        3PZ         0.00000   0.00000   0.00000   0.00000   0.00000
 200        4S         -0.00317   0.00005  -0.01889   0.05117  -0.08987
 201        4PX        -0.00856  -0.00162   0.02304  -0.00159   0.02094
 202        4PY        -0.00047   0.00014   0.00462   0.00771  -0.00750
 203        4PZ        -0.00000  -0.00000   0.00001  -0.00000   0.00001
 204        5XX         0.00002   0.00001  -0.00007   0.00002   0.00029
 205        5YY        -0.00001  -0.00001  -0.00010   0.00004   0.00022
 206        5ZZ         0.00000   0.00002  -0.00000  -0.00010   0.00018
 207        5XY         0.00003   0.00002   0.00000  -0.00004  -0.00007
 208        5XZ        -0.00000  -0.00000  -0.00000   0.00000   0.00000
 209        5YZ         0.00000   0.00000   0.00000  -0.00000   0.00000
 210 12  H  1S          0.00002   0.00002   0.00006   0.00003   0.00004
 211        2S          0.00025   0.00009  -0.00070   0.00036   0.00025
 212 13  C  1S          0.00001   0.00000  -0.00003  -0.00001  -0.00047
 213        2S          0.00004   0.00001  -0.00011  -0.00001   0.00008
 214        2PX        -0.00001  -0.00001  -0.00003   0.00008  -0.00004
 215        2PY         0.00000   0.00000  -0.00002   0.00000   0.00001
 216        2PZ         0.00000   0.00000  -0.00000   0.00000  -0.00000
 217        3S         -0.00041   0.00008   0.00212  -0.00098  -0.00039
 218        3PX         0.00034  -0.00000  -0.00094   0.00029  -0.00003
 219        3PY        -0.00015   0.00001   0.00058   0.00022   0.00006
 220        3PZ         0.00000  -0.00000  -0.00000  -0.00000   0.00000
 221        4S          0.00461   0.00394  -0.02566  -0.01411  -0.00810
 222        4PX        -0.00439  -0.00019   0.00904   0.00258   0.00102
 223        4PY        -0.00661  -0.00032   0.00823   0.00105   0.00216
 224        4PZ         0.00000  -0.00000  -0.00000   0.00000  -0.00000
 225        5XX        -0.00001  -0.00001   0.00000  -0.00003   0.00001
 226        5YY        -0.00000   0.00000   0.00002   0.00000   0.00001
 227        5ZZ         0.00001   0.00001  -0.00003  -0.00003   0.00005
 228        5XY        -0.00001  -0.00000   0.00003  -0.00001   0.00000
 229        5XZ        -0.00000  -0.00000   0.00000   0.00000  -0.00000
 230        5YZ         0.00000   0.00000   0.00000   0.00000   0.00000
 231 14  C  1S         -0.00001   0.00000   0.00003  -0.00001  -0.00047
 232        2S         -0.00003   0.00001   0.00011  -0.00001   0.00008
 233        2PX         0.00000  -0.00001   0.00004   0.00008  -0.00004
 234        2PY         0.00000  -0.00000  -0.00002  -0.00000  -0.00001
 235        2PZ        -0.00000   0.00000   0.00000   0.00000  -0.00000
 236        3S          0.00041  -0.00002  -0.00215  -0.00090  -0.00039
 237        3PX        -0.00033   0.00008   0.00095   0.00025  -0.00003
 238        3PY        -0.00014   0.00003   0.00057  -0.00025  -0.00006
 239        3PZ         0.00000  -0.00000   0.00000   0.00000   0.00000
 240        4S         -0.00355   0.00492   0.02509  -0.01511  -0.00810
 241        4PX         0.00422  -0.00123  -0.00893   0.00293   0.00102
 242        4PY        -0.00635   0.00187   0.00819  -0.00137  -0.00216
 243        4PZ         0.00000  -0.00000  -0.00000   0.00000   0.00000
 244        5XX         0.00001  -0.00001  -0.00000  -0.00003   0.00001
 245        5YY         0.00000  -0.00000  -0.00001   0.00001   0.00001
 246        5ZZ        -0.00001   0.00001   0.00003  -0.00003   0.00005
 247        5XY        -0.00001   0.00001   0.00003   0.00001  -0.00000
 248        5XZ         0.00000  -0.00000  -0.00000   0.00000  -0.00000
 249        5YZ        -0.00000   0.00000   0.00000  -0.00000   0.00000
 250 15  C  1S          0.00001   0.00000   0.00001  -0.00005  -0.01526
 251        2S          0.00005  -0.00001  -0.00010  -0.00023  -0.00056
 252        2PX         0.00000  -0.00000  -0.00012  -0.00003  -0.00007
 253        2PY        -0.00002   0.00002  -0.00008   0.00004  -0.00008
 254        2PZ         0.00000  -0.00000   0.00000  -0.00000  -0.00000
 255        3S         -0.00039  -0.00025   0.00548   0.00231  -0.00285
 256        3PX        -0.00000   0.00009  -0.00093  -0.00001   0.00117
 257        3PY         0.00027   0.00003  -0.00219  -0.00158   0.00045
 258        3PZ        -0.00000   0.00000  -0.00000   0.00000   0.00000
 259        4S          0.00309  -0.00070   0.02088   0.05039  -0.08987
 260        4PX         0.00793  -0.00360  -0.02309  -0.00068   0.02094
 261        4PY        -0.00049  -0.00002   0.00431  -0.00789   0.00750
 262        4PZ         0.00000  -0.00000  -0.00001  -0.00000   0.00000
 263        5XX        -0.00002   0.00002   0.00007   0.00002   0.00029
 264        5YY         0.00000  -0.00001   0.00010   0.00003   0.00022
 265        5ZZ         0.00000   0.00002  -0.00000  -0.00010   0.00018
 266        5XY         0.00002  -0.00003   0.00000   0.00004   0.00007
 267        5XZ         0.00000  -0.00000   0.00000   0.00000   0.00000
 268        5YZ         0.00000  -0.00000   0.00000   0.00000  -0.00000
 269 16  H  1S         -0.00001   0.00000  -0.00000   0.00002   0.00001
 270        2S         -0.00014  -0.00004   0.00036   0.00006  -0.00019
 271 17  H  1S          0.00002   0.00002   0.00006   0.00003  -0.00004
 272        2S          0.00025   0.00009  -0.00070   0.00036  -0.00025
 273 18  H  1S         -0.00001   0.00002  -0.00006   0.00003  -0.00004
 274        2S         -0.00022   0.00015   0.00071   0.00034  -0.00025
 275 19  H  1S          0.00001  -0.00000   0.00000   0.00002   0.00001
 276        2S          0.00013  -0.00007  -0.00036   0.00007  -0.00019
 277 20  H  1S         -0.00001   0.00000  -0.00000   0.00002  -0.00001
 278        2S         -0.00014  -0.00004   0.00036   0.00006   0.00019
 279 21  H  1S          0.00001  -0.00000   0.00000   0.00002  -0.00001
 280        2S          0.00013  -0.00007  -0.00036   0.00007   0.00019
 281 22  H  1S         -0.00001   0.00002  -0.00006   0.00003   0.00004
 282        2S         -0.00022   0.00015   0.00071   0.00034   0.00025
 283 23  O  1S         -0.61325   0.78045   0.00007   0.00002  -0.00000
[...]
                                 1                 2
   1         O               -19.160442         29.022043
   2         O               -19.160441         29.022273
   3         O               -10.297273         15.890374
   4         O               -10.297267         15.888775
   5         O               -10.227024         15.878593
   6         O               -10.227015         15.877355
   7         O               -10.226512         15.888140
   8         O               -10.226510         15.885936
   9         O               -10.222620         15.877116
  10         O               -10.222619         15.876663
  11         O               -10.222083         15.886217
  12         O               -10.222082         15.886066
  13         O               -10.218265         15.884625
  14         O               -10.218264         15.884430
  15         O               -10.218258         15.882356
  16         O               -10.218257         15.881754
  17         O                -1.059525          2.607774
  18         O                -1.057612          2.649656
  19         O                -0.894665          1.570909
  20         O                -0.883017          1.504536
  21         O                -0.813865          1.584015
  22         O                -0.781004          1.727926
  23         O                -0.778690          1.613198
  24         O                -0.772261          1.666406
  25         O                -0.690591          1.792799
  26         O                -0.670647          1.507391
  27         O                -0.644174          1.523387
  28         O                -0.619096          1.531255
  29         O                -0.586435          1.498253
  30         O                -0.562660          1.628719
  31         O                -0.559219          1.147280
  32         O                -0.503359          1.731174
  33         O                -0.491675          1.514607
  34         O                -0.488257          1.378383
  35         O                -0.485354          1.365460
  36         O                -0.454129          1.276653
  37         O                -0.452104          1.138437
  38         O                -0.451455          1.533599
  39         O                -0.448528          2.116554
  40         O                -0.441973          1.564578
  41         O                -0.437150          1.860107
  42         O                -0.412638          1.606949
  43         O                -0.401017          1.461836
  44         O                -0.393104          0.945831
  45         O                -0.377679          1.417621
  46         O                -0.377289          1.662651
  47         O                -0.366827          1.348648
  48         O                -0.365816          1.620165
  49         O                -0.288129          1.462295
  50         O                -0.282007          2.315587
  51         O                -0.280615          1.118058
  52         O                -0.277547          1.156646
  53         O                -0.276459          1.312570
  54         O                -0.270208          2.313553
  55         V                -0.116216          1.689614
  56         V                -0.072840          1.362436
  57         V                -0.037212          1.335273
  58         V                -0.026824          1.311533
  59         V                 0.001189          0.338624
  60         V                 0.004900          0.319274
  61         V                 0.022214          0.279221
  62         V                 0.023681          0.289558
  63         V                 0.026457          0.280066
  64         V                 0.033664          1.396181
  65         V                 0.036537          1.072437
  66         V                 0.046255          0.314609
  67         V                 0.048787          0.967246
  68         V                 0.049060          0.287382
  69         V                 0.052936          0.339045
  70         V                 0.061911          0.255264
  71         V                 0.067142          0.296568
  72         V                 0.067398          0.261268
  73         V                 0.077118          0.355798
  74         V                 0.085136          0.275310
  75         V                 0.091042          0.354300
  76         V                 0.093859          0.318057
  77         V                 0.099840          0.267604
  78         V                 0.113128          0.337798
  79         V                 0.117384          1.152273
  80         V                 0.122138          0.354096
  81         V                 0.122167          0.322046
  82         V                 0.128594          0.406219
  83         V                 0.135835          0.375489
  84         V                 0.136350          0.524325
  85         V                 0.139972          0.296196
  86         V                 0.150490          1.094071
  87         V                 0.159480          0.439782
  88         V                 0.164420          0.378932
  89         V                 0.169740          0.580087
  90         V                 0.173691          0.339327
  91         V                 0.173886          0.876780
  92         V                 0.175166          0.873380
  93         V                 0.178417          0.920758
  94         V                 0.185400          0.390220
  95         V                 0.187106          1.377726
  96         V                 0.187515          0.510516
  97         V                 0.190683          1.109353
  98         V                 0.197079          0.444148
  99         V                 0.202119          0.841036
 100         V                 0.203173          0.729511
 101         V                 0.210618          1.558697
 102         V                 0.213386          0.599682
 103         V                 0.216699          1.152637
 104         V                 0.217443          1.265173
 105         V                 0.226553          0.590999
 106         V                 0.230772          0.765044
 107         V                 0.232317          0.763842
 108         V                 0.240590          1.016530
 109         V                 0.251244          0.429144
 110         V                 0.255438          1.033057
 111         V                 0.260145          1.232161
 112         V                 0.260889          0.957815
 113         V                 0.267278          0.820812
 114         V                 0.269885          0.876201
 115         V                 0.273957          1.358624
 116         V                 0.277854          1.309940
 117         V                 0.279277          0.890753
 118         V                 0.286329          1.517485
 119         V                 0.293934          1.837178
 120         V                 0.301600          0.932559
 121         V                 0.308433          0.725842
 122         V                 0.310085          1.043787
 123         V                 0.320014          1.099274
 124         V                 0.320420          1.028986
 125         V                 0.321098          0.739774
 126         V                 0.321838          1.159801
 127         V                 0.332001          1.364865
 128         V                 0.335053          0.651869
 129         V                 0.339582          1.250201
 130         V                 0.348662          1.239179
 131         V                 0.365847          1.227347
 132         V                 0.377280          0.914451
 133         V                 0.383151          1.311274
 134         V                 0.392536          1.490087
 135         V                 0.395638          1.614735
 136         V                 0.399790          0.897939
 137         V                 0.413816          1.904320
 138         V                 0.419484          1.204578
 139         V                 0.452383          1.279509
 140         V                 0.472333          2.086729
 141         V                 0.487429          2.327953
 142         V                 0.494371          2.225484
 143         V                 0.521067          2.336786
 144         V                 0.589434          2.518290
 145         V                 0.600617          3.028634
 146         V                 0.632362          2.859030
 147         V                 0.654644          2.132406
 148         V                 0.657725          2.185616
 149         V                 0.665980          2.143914
 150         V                 0.666401          2.844794
 151         V                 0.682445          2.363830
 152         V                 0.687135          1.972362
 153         V                 0.689195          2.433078
 154         V                 0.689440          2.112009
 155         V                 0.709744          2.504010
 156         V                 0.713963          2.180466
 157         V                 0.717679          2.454142
 158         V                 0.722373          2.206000
 159         V                 0.723185          2.211513
 160         V                 0.725457          2.218842
 161         V                 0.734675          2.968442
 162         V                 0.753537          2.505129
 163         V                 0.759740          2.211747
 164         V                 0.766401          2.241793
 165         V                 0.770144          2.251896
 166         V                 0.778311          2.324057
 167         V                 0.781888          2.302217
 168         V                 0.799695          2.263020
 169         V                 0.809685          2.542996
 170         V                 0.819280          2.037319
 171         V                 0.835372          2.333152
 172         V                 0.844572          2.701512
 173         V                 0.889422          2.757688
 174         V                 0.893035          2.568164
 175         V                 0.894869          2.048128
 176         V                 0.913398          2.445609
 177         V                 0.918903          2.293844
 178         V                 0.925862          2.342246
 179         V                 0.933262          2.568959
 180         V                 0.947282          2.458544
 181         V                 1.000387          2.441151
 182         V                 1.002885          2.552991
 183         V                 1.029019          2.493583
 184         V                 1.039828          2.218902
 185         V                 1.057747          2.553058
 186         V                 1.059773          2.317970
 187         V                 1.109176          2.227582
 188         V                 1.111349          2.275185
 189         V                 1.113512          2.216808
 190         V                 1.140287          2.342547
 191         V                 1.155005          2.438780
 192         V                 1.158797          2.143583
 193         V                 1.185058          2.194027
 194         V                 1.185239          2.349507
 195         V                 1.186113          2.469704
 196         V                 1.187070          2.451672
 197         V                 1.219622          2.392015
 198         V                 1.225736          2.390540
 199         V                 1.235036          2.407168
 200         V                 1.236149          2.577602
 201         V                 1.243522          3.656091
 202         V                 1.259877          2.455661
 203         V                 1.263684          2.618149
 204         V                 1.265956          3.653210
 205         V                 1.314235          2.746642
 206         V                 1.330183          3.240365
 207         V                 1.336025          2.875759
 208         V                 1.340222          2.524335
 209         V                 1.351940          2.835176
 210         V                 1.361067          2.866602
 211         V                 1.370252          2.510560
 212         V                 1.395048          2.601137
 213         V                 1.397708          2.601516
 214         V                 1.413750          2.590893
 215         V                 1.432628          2.615338
 216         V                 1.443532          3.163294
 217         V                 1.448755          2.697212
 218         V                 1.456261          2.668269
 219         V                 1.456462          3.103625
 220         V                 1.461516          2.661569
 221         V                 1.471279          2.675190
 222         V                 1.476649          2.685178
 223         V                 1.499577          2.932516
 224         V                 1.510894          2.729282
 225         V                 1.533819          3.024373
 226         V                 1.615513          2.870129
 227         V                 1.647520          3.177352
 228         V                 1.665279          3.136173
 229         V                 1.675969          3.248413
 230         V                 1.714070          2.788479
 231         V                 1.743855          2.799565
 232         V                 1.746227          2.940394
 233         V                 1.794309          3.020996
 234         V                 1.797960          3.285476
 235         V                 1.816143          3.325141
 236         V                 1.824880          3.386216
 237         V                 1.840598          3.397737
 238         V                 1.861821          3.233931
 239         V                 1.863563          3.288786
 240         V                 1.895604          3.016569
 241         V                 1.917116          3.231388
 242         V                 1.919318          3.306253
 243         V                 1.940229          3.445533
 244         V                 1.956557          3.463922
 245         V                 1.980122          3.256952
 246         V                 2.005531          3.395161
 247         V                 2.025859          3.268289
 248         V                 2.044748          3.765043
 249         V                 2.057751          3.648144
 250         V                 2.064243          3.270030
 251         V                 2.065645          3.680410
 252         V                 2.071289          3.673767
 253         V                 2.134927          3.618838
 254         V                 2.135743          3.360549
 255         V                 2.148046          3.388032
 256         V                 2.156697          3.589284
 257         V                 2.165374          3.622759
 258         V                 2.187803          3.599123
 259         V                 2.206613          3.434045
 260         V                 2.231949          3.661849
 261         V                 2.246800          3.513579
 262         V                 2.263055          3.520990
 263         V                 2.270191          3.542773
 264         V                 2.276774          3.549701
 265         V                 2.277443          3.560174
 266         V                 2.288236          3.532679
 267         V                 2.289639          3.552368
 268         V                 2.379426          3.871829
 269         V                 2.421409          3.759652
 270         V                 2.444231          4.075642
 271         V                 2.477085          4.460580
 272         V                 2.509647          3.812700
 273         V                 2.537607          4.098360
 274         V                 2.543581          3.818403
 275         V                 2.567541          3.994273
 276         V                 2.588660          4.190124
 277         V                 2.589919          3.850668
 278         V                 2.636501          3.952897
 279         V                 2.687372          4.439913
 280         V                 2.703830          4.230464
 281         V                 2.707066          4.012065
 282         V                 2.708292          4.340492
 283         V                 2.729209          4.543830
 284         V                 2.730653          4.249667
 285         V                 2.756741          4.510708
 286         V                 2.780170          4.327677
 287         V                 2.826477          4.446749
 288         V                 2.846729          4.741376
 289         V                 2.856998          4.472020
 290         V                 2.883106          4.762895
 291         V                 2.965989          4.733430
 292         V                 3.045603          4.659645
 293         V                 3.093761          4.891725
 294         V                 3.155981          4.955036
 295         V                 3.220387          5.308200
 296         V                 3.244334          5.340339
 297         V                 3.344393          5.408267
 298         V                 3.412186          5.361488
 299         V                 3.478643          5.292808
 300         V                 4.212635         10.487355
 301         V                 4.223076         10.513587
 302         V                 4.231602         10.499589
 303         V                 4.280110         10.590601
 304         V                 4.280421         10.405382
 305         V                 4.314402         10.589642
 306         V                 4.316935         10.499169
 307         V                 4.318885         10.625113
 308         V                 4.407595         10.306982
 309         V                 4.418133         10.461084
 310         V                 4.418182         10.532027
 311         V                 4.451179         10.456317
 312         V                 4.663538         10.478341
 313         V                 4.707415         11.811845
 314         V                 4.738835         10.983312
 315         V                 5.065928         12.441109
 Total kinetic energy from orbitals= 6.823763710982D+02
 Leave Link  601 at Sun May 30 23:08:59 2021, MaxMem=    33554432 cpu:         1.1
 (Enter /opt/app/gaussian09/e01/g09/l9999.exe)
 1\1\GINC-NB-0006\SP\RB3LYP TD-FC\6-31+G(d)\C14H8O2\ROOT\30-May-2021\0\
 \#p td(NStates=10) b3lyp/6-31+G(d) pop=full\\TD\\0,1\C,0,3.69521477,0.
 70006079,0.00051976\C,0,2.49085448,1.39852063,0.00012679\C,0,1.2753353
 3,0.70435963,-0.00008009\C,0,1.27533577,-0.70435897,0.00003851\C,0,2.4
 9085499,-1.39852005,0.00033114\C,0,3.69521502,-0.70006046,0.00063251\C
 ,0,-0.00000042,1.47857129,-0.00032319\C,0,0.00000054,-1.47857153,-0.00
 02093\C,0,-1.27533577,-0.70435892,-0.00007557\C,0,-1.27533563,0.704359
 46,0.00004787\C,0,-2.49085486,1.39852014,0.00041136\H,0,-2.46400787,2.
 48328201,0.00046891\C,0,-3.69521486,0.7000604,0.00067125\C,0,-3.695214
 82,-0.70006079,0.00046528\C,0,-2.49085457,-1.39852007,0.00006313\H,0,4
 .63632986,1.24306051,0.00070536\H,0,2.46400832,2.48328232,0.00000696\H
 ,0,2.46400648,-2.4832818,0.00034381\H,0,4.63633104,-1.24305849,0.00095
 663\H,0,-4.6363305,1.24305919,0.00101596\H,0,-4.63633051,-1.2430596,0.
 00062566\H,0,-2.46400635,-2.48328191,-0.00008171\O,0,0.0000004,-2.7048
 9967,-0.00120456\O,0,-0.00000043,2.70489823,-0.00126521\\Version=ES64L
 -G09RevE.01\State=1-A\HF=-688.8029553\RMSD=5.627e-09\PG=C01 [X(C14H8O2
 )]\\@


 RESEARCH IS WHAT I AM DOING WHEN I DON'T KNOW WHAT I AM DOING.
     -- WERNER VON BRAUN
 Job cpu time:       0 days  0 hours 41 minutes 57.9 seconds.
 File lengths (MBytes):  RWF=    260 Int=      0 D2E=      0 Chk=     39 Scr=      1
 Normal termination of Gaussian 09 at Sun May 30 23:09:01 2021.
