TD                                                                      
SP        RB3LYP TD-FC                                                6-31+G(d)           
Number of atoms                            I               24
Info1-9                                    I   N=           9
          56          31           0           0           0         110
           1         218        -501
Charge                                     I                0
Multiplicity                               I                1
Number of electrons                        I              108
Number of alpha electrons                  I               54
Number of beta electrons                   I               54
Number of basis functions                  I              320
Number of independent functions            I              315
Number of point charges in /Mol/           I                0
Number of translation vectors              I                0
Atomic numbers                             I   N=          24
           6           6           6           6           6           6
           6           6           6           6           6           1
           6           6           6           1           1           1
           1           1           1           1           8           8
Nuclear charges                            R   N=          24
  6.00000000E+00  6.00000000E+00  6.00000000E+00  6.00000000E+00  6.00000000E+00
  6.00000000E+00  6.00000000E+00  6.00000000E+00  6.00000000E+00  6.00000000E+00
  6.00000000E+00  1.00000000E+00  6.00000000E+00  6.00000000E+00  6.00000000E+00
  1.00000000E+00  1.00000000E+00  1.00000000E+00  1.00000000E+00  1.00000000E+00
  1.00000000E+00  1.00000000E+00  8.00000000E+00  8.00000000E+00
Current cartesian coordinates              R   N=          72
 -6.98294392E+00 -1.32292316E+00  9.82201955E-04 -4.70703281E+00 -2.64282098E+00
  2.39596277E-04 -2.41003450E+00 -1.33104680E+00 -1.51350266E-04 -2.41003533E+00
  1.33104556E+00  7.27712537E-05 -4.70703376E+00  2.64281989E+00  6.25761812E-04
 -6.98294439E+00  1.32292255E+00  1.19526858E-03  7.91121347E-07 -2.79409481E+00
 -6.10742689E-04 -1.01613874E-06  2.79409526E+00 -3.95521779E-04  2.41003534E+00
  1.33104546E+00 -1.42808704E-04  2.41003507E+00 -1.33104648E+00  9.04590903E-05
  4.70703352E+00 -2.64282006E+00  7.77355642E-04  4.65630006E+00 -4.69272292E+00
  8.86109381E-04  6.98294409E+00 -1.32292244E+00  1.26847657E-03  6.98294401E+00
  1.32292316E+00  8.79249675E-04  4.70703298E+00  2.64281992E+00  1.19296311E-04
 -8.76139370E+00 -2.34904392E+00  1.33293513E-03 -4.65630092E+00 -4.69272349E+00
  1.31503942E-05 -4.65629743E+00  4.69272252E+00  6.49704642E-04 -8.76139592E+00
  2.34904012E+00  1.80776661E-03  8.76139490E+00 -2.34904145E+00  1.91988406E-03
  8.76139493E+00  2.34904220E+00  1.18232395E-03  4.65629720E+00  4.69272272E+00
 -1.54411622E-04 -7.48725181E-07  5.11151959E+00 -2.27629061E-03  8.07166715E-07
 -5.11151687E+00 -2.39090250E-03
Force Field                                I                0
Int Atom Types                             I   N=          24
           0           0           0           0           0           0
           0           0           0           0           0           0
           0           0           0           0           0           0
           0           0           0           0           0           0
MM charges                                 R   N=          24
  0.00000000E+00  0.00000000E+00  0.00000000E+00  0.00000000E+00  0.00000000E+00
  0.00000000E+00  0.00000000E+00  0.00000000E+00  0.00000000E+00  0.00000000E+00
  0.00000000E+00  0.00000000E+00  0.00000000E+00  0.00000000E+00  0.00000000E+00
  0.00000000E+00  0.00000000E+00  0.00000000E+00  0.00000000E+00  0.00000000E+00
  0.00000000E+00  0.00000000E+00  0.00000000E+00  0.00000000E+00
Integer atomic weights                     I   N=          24
          12          12          12          12          12          12
          12          12          12          12          12           1
          12          12          12           1           1           1
           1           1           1           1          16          16
Real atomic weights                        R   N=          24
  1.20000000E+01  1.20000000E+01  1.20000000E+01  1.20000000E+01  1.20000000E+01
  1.20000000E+01  1.20000000E+01  1.20000000E+01  1.20000000E+01  1.20000000E+01
  1.20000000E+01  1.00782504E+00  1.20000000E+01  1.20000000E+01  1.20000000E+01
  1.00782504E+00  1.00782504E+00  1.00782504E+00  1.00782504E+00  1.00782504E+00
  1.00782504E+00  1.00782504E+00  1.59949146E+01  1.59949146E+01
Atom fragment info                         I   N=          24
           0           0           0           0           0           0
           0           0           0           0           0           0
           0           0           0           0           0           0
           0           0           0           0           0           0
Atom residue num                           I   N=          24
           0           0           0           0           0           0
           0           0           0           0           0           0
           0           0           0           0           0           0
           0           0           0           0           0           0
Nuclear spins                              I   N=          24
           0           0           0           0           0           0
           0           0           0           0           0           1
           0           0           0           1           1           1
           1           1           1           1           0           0
Nuclear ZEff                               R   N=          24
 -3.60000000E+00 -3.60000000E+00 -3.60000000E+00 -3.60000000E+00 -3.60000000E+00
 -3.60000000E+00 -3.60000000E+00 -3.60000000E+00 -3.60000000E+00 -3.60000000E+00
 -3.60000000E+00 -1.00000000E+00 -3.60000000E+00 -3.60000000E+00 -3.60000000E+00
 -1.00000000E+00 -1.00000000E+00 -1.00000000E+00 -1.00000000E+00 -1.00000000E+00
 -1.00000000E+00 -1.00000000E+00 -5.60000000E+00 -5.60000000E+00
Nuclear ZNuc                               R   N=          24
  6.00000000E+00  6.00000000E+00  6.00000000E+00  6.00000000E+00  6.00000000E+00
  6.00000000E+00  6.00000000E+00  6.00000000E+00  6.00000000E+00  6.00000000E+00
  6.00000000E+00  1.00000000E+00  6.00000000E+00  6.00000000E+00  6.00000000E+00
  1.00000000E+00  1.00000000E+00  1.00000000E+00  1.00000000E+00  1.00000000E+00
  1.00000000E+00  1.00000000E+00  8.00000000E+00  8.00000000E+00
Nuclear QMom                               R   N=          24
  0.00000000E+00  0.00000000E+00  0.00000000E+00  0.00000000E+00  0.00000000E+00
  0.00000000E+00  0.00000000E+00  0.00000000E+00  0.00000000E+00  0.00000000E+00
  0.00000000E+00  0.00000000E+00  0.00000000E+00  0.00000000E+00  0.00000000E+00
  0.00000000E+00  0.00000000E+00  0.00000000E+00  0.00000000E+00  0.00000000E+00
  0.00000000E+00  0.00000000E+00  0.00000000E+00  0.00000000E+00
Nuclear GFac                               R   N=          24
  0.00000000E+00  0.00000000E+00  0.00000000E+00  0.00000000E+00  0.00000000E+00
  0.00000000E+00  0.00000000E+00  0.00000000E+00  0.00000000E+00  0.00000000E+00
  0.00000000E+00  2.79284600E+00  0.00000000E+00  0.00000000E+00  0.00000000E+00
  2.79284600E+00  2.79284600E+00  2.79284600E+00  2.79284600E+00  2.79284600E+00
  2.79284600E+00  2.79284600E+00  0.00000000E+00  0.00000000E+00
MicOpt                                     I   N=          24
          -1          -1          -1          -1          -1          -1
          -1          -1          -1          -1          -1          -1
          -1          -1          -1          -1          -1          -1
          -1          -1          -1          -1          -1          -1
SymInf integers                            I   N=          26
           1           1           1           1           1           0
           0           0           0           0           0           0
           0           0           0           0           0           0
           0           0           0           0           0           0
           0           0
RotTr to input orientation                 R   N=          12
 -1.00000000E+00 -1.23063178E-09  0.00000000E+00  1.23063178E-09 -1.00000000E+00
  0.00000000E+00  0.00000000E+00  0.00000000E+00  1.00000000E+00  8.74873375E-10
  1.74974636E-10  2.09969570E-09
Number of contracted shells                I               96
Number of primitive shells                 I              224
Pure/Cartesian d shells                    I                1
Pure/Cartesian f shells                    I                0
Highest angular momentum                   I                2
Largest degree of contraction              I                6
Shell types                                I   N=          96
           0          -1          -1          -1           2           0
          -1          -1          -1           2           0          -1
          -1          -1           2           0          -1          -1
          -1           2           0          -1          -1          -1
           2           0          -1          -1          -1           2
           0          -1          -1          -1           2           0
          -1          -1          -1           2           0          -1
          -1          -1           2           0          -1          -1
          -1           2           0          -1          -1          -1
           2           0           0           0          -1          -1
          -1           2           0          -1          -1          -1
           2           0          -1          -1          -1           2
           0           0           0           0           0           0
           0           0           0           0           0           0
           0           0           0          -1          -1          -1
           2           0          -1          -1          -1           2
Number of primitives per shell             I   N=          96
           6           3           1           1           1           6
           3           1           1           1           6           3
           1           1           1           6           3           1
           1           1           6           3           1           1
           1           6           3           1           1           1
           6           3           1           1           1           6
           3           1           1           1           6           3
           1           1           1           6           3           1
           1           1           6           3           1           1
           1           3           1           6           3           1
           1           1           6           3           1           1
           1           6           3           1           1           1
           3           1           3           1           3           1
           3           1           3           1           3           1
           3           1           6           3           1           1
           1           6           3           1           1           1
Shell to atom map                          I   N=          96
           1           1           1           1           1           2
           2           2           2           2           3           3
           3           3           3           4           4           4
           4           4           5           5           5           5
           5           6           6           6           6           6
           7           7           7           7           7           8
           8           8           8           8           9           9
           9           9           9          10          10          10
          10          10          11          11          11          11
          11          12          12          13          13          13
          13          13          14          14          14          14
          14          15          15          15          15          15
          16          16          17          17          18          18
          19          19          20          20          21          21
          22          22          23          23          23          23
          23          24          24          24          24          24
Primitive exponents                        R   N=         224
  3.04752488E+03  4.57369518E+02  1.03948685E+02  2.92101553E+01  9.28666296E+00
  3.16392696E+00  7.86827235E+00  1.88128854E+00  5.44249258E-01  1.68714478E-01
  4.38000000E-02  8.00000000E-01  3.04752488E+03  4.57369518E+02  1.03948685E+02
  2.92101553E+01  9.28666296E+00  3.16392696E+00  7.86827235E+00  1.88128854E+00
  5.44249258E-01  1.68714478E-01  4.38000000E-02  8.00000000E-01  3.04752488E+03
  4.57369518E+02  1.03948685E+02  2.92101553E+01  9.28666296E+00  3.16392696E+00
  7.86827235E+00  1.88128854E+00  5.44249258E-01  1.68714478E-01  4.38000000E-02
  8.00000000E-01  3.04752488E+03  4.57369518E+02  1.03948685E+02  2.92101553E+01
  9.28666296E+00  3.16392696E+00  7.86827235E+00  1.88128854E+00  5.44249258E-01
  1.68714478E-01  4.38000000E-02  8.00000000E-01  3.04752488E+03  4.57369518E+02
  1.03948685E+02  2.92101553E+01  9.28666296E+00  3.16392696E+00  7.86827235E+00
  1.88128854E+00  5.44249258E-01  1.68714478E-01  4.38000000E-02  8.00000000E-01
  3.04752488E+03  4.57369518E+02  1.03948685E+02  2.92101553E+01  9.28666296E+00
  3.16392696E+00  7.86827235E+00  1.88128854E+00  5.44249258E-01  1.68714478E-01
  4.38000000E-02  8.00000000E-01  3.04752488E+03  4.57369518E+02  1.03948685E+02
  2.92101553E+01  9.28666296E+00  3.16392696E+00  7.86827235E+00  1.88128854E+00
  5.44249258E-01  1.68714478E-01  4.38000000E-02  8.00000000E-01  3.04752488E+03
  4.57369518E+02  1.03948685E+02  2.92101553E+01  9.28666296E+00  3.16392696E+00
  7.86827235E+00  1.88128854E+00  5.44249258E-01  1.68714478E-01  4.38000000E-02
  8.00000000E-01  3.04752488E+03  4.57369518E+02  1.03948685E+02  2.92101553E+01
  9.28666296E+00  3.16392696E+00  7.86827235E+00  1.88128854E+00  5.44249258E-01
  1.68714478E-01  4.38000000E-02  8.00000000E-01  3.04752488E+03  4.57369518E+02
  1.03948685E+02  2.92101553E+01  9.28666296E+00  3.16392696E+00  7.86827235E+00
  1.88128854E+00  5.44249258E-01  1.68714478E-01  4.38000000E-02  8.00000000E-01
  3.04752488E+03  4.57369518E+02  1.03948685E+02  2.92101553E+01  9.28666296E+00
  3.16392696E+00  7.86827235E+00  1.88128854E+00  5.44249258E-01  1.68714478E-01
  4.38000000E-02  8.00000000E-01  1.87311370E+01  2.82539436E+00  6.40121692E-01
  1.61277759E-01  3.04752488E+03  4.57369518E+02  1.03948685E+02  2.92101553E+01
  9.28666296E+00  3.16392696E+00  7.86827235E+00  1.88128854E+00  5.44249258E-01
  1.68714478E-01  4.38000000E-02  8.00000000E-01  3.04752488E+03  4.57369518E+02
  1.03948685E+02  2.92101553E+01  9.28666296E+00  3.16392696E+00  7.86827235E+00
  1.88128854E+00  5.44249258E-01  1.68714478E-01  4.38000000E-02  8.00000000E-01
  3.04752488E+03  4.57369518E+02  1.03948685E+02  2.92101553E+01  9.28666296E+00
  3.16392696E+00  7.86827235E+00  1.88128854E+00  5.44249258E-01  1.68714478E-01
  4.38000000E-02  8.00000000E-01  1.87311370E+01  2.82539436E+00  6.40121692E-01
  1.61277759E-01  1.87311370E+01  2.82539436E+00  6.40121692E-01  1.61277759E-01
  1.87311370E+01  2.82539436E+00  6.40121692E-01  1.61277759E-01  1.87311370E+01
  2.82539436E+00  6.40121692E-01  1.61277759E-01  1.87311370E+01  2.82539436E+00
  6.40121692E-01  1.61277759E-01  1.87311370E+01  2.82539436E+00  6.40121692E-01
  1.61277759E-01  1.87311370E+01  2.82539436E+00  6.40121692E-01  1.61277759E-01
  5.48467166E+03  8.25234946E+02  1.88046958E+02  5.29645000E+01  1.68975704E+01
  5.79963534E+00  1.55396162E+01  3.59993359E+00  1.01376175E+00  2.70005823E-01
  8.45000000E-02  8.00000000E-01  5.48467166E+03  8.25234946E+02  1.88046958E+02
  5.29645000E+01  1.68975704E+01  5.79963534E+00  1.55396162E+01  3.59993359E+00
  1.01376175E+00  2.70005823E-01  8.45000000E-02  8.00000000E-01
Contraction coefficients                   R   N=         224
  1.83473713E-03  1.40373228E-02  6.88426223E-02  2.32184443E-01  4.67941348E-01
  3.62311985E-01 -1.19332420E-01 -1.60854152E-01  1.14345644E+00  1.00000000E+00
  1.00000000E+00  1.00000000E+00  1.83473713E-03  1.40373228E-02  6.88426223E-02
  2.32184443E-01  4.67941348E-01  3.62311985E-01 -1.19332420E-01 -1.60854152E-01
  1.14345644E+00  1.00000000E+00  1.00000000E+00  1.00000000E+00  1.83473713E-03
  1.40373228E-02  6.88426223E-02  2.32184443E-01  4.67941348E-01  3.62311985E-01
 -1.19332420E-01 -1.60854152E-01  1.14345644E+00  1.00000000E+00  1.00000000E+00
  1.00000000E+00  1.83473713E-03  1.40373228E-02  6.88426223E-02  2.32184443E-01
  4.67941348E-01  3.62311985E-01 -1.19332420E-01 -1.60854152E-01  1.14345644E+00
  1.00000000E+00  1.00000000E+00  1.00000000E+00  1.83473713E-03  1.40373228E-02
  6.88426223E-02  2.32184443E-01  4.67941348E-01  3.62311985E-01 -1.19332420E-01
 -1.60854152E-01  1.14345644E+00  1.00000000E+00  1.00000000E+00  1.00000000E+00
  1.83473713E-03  1.40373228E-02  6.88426223E-02  2.32184443E-01  4.67941348E-01
  3.62311985E-01 -1.19332420E-01 -1.60854152E-01  1.14345644E+00  1.00000000E+00
  1.00000000E+00  1.00000000E+00  1.83473713E-03  1.40373228E-02  6.88426223E-02
  2.32184443E-01  4.67941348E-01  3.62311985E-01 -1.19332420E-01 -1.60854152E-01
  1.14345644E+00  1.00000000E+00  1.00000000E+00  1.00000000E+00  1.83473713E-03
  1.40373228E-02  6.88426223E-02  2.32184443E-01  4.67941348E-01  3.62311985E-01
 -1.19332420E-01 -1.60854152E-01  1.14345644E+00  1.00000000E+00  1.00000000E+00
  1.00000000E+00  1.83473713E-03  1.40373228E-02  6.88426223E-02  2.32184443E-01
  4.67941348E-01  3.62311985E-01 -1.19332420E-01 -1.60854152E-01  1.14345644E+00
  1.00000000E+00  1.00000000E+00  1.00000000E+00  1.83473713E-03  1.40373228E-02
  6.88426223E-02  2.32184443E-01  4.67941348E-01  3.62311985E-01 -1.19332420E-01
 -1.60854152E-01  1.14345644E+00  1.00000000E+00  1.00000000E+00  1.00000000E+00
  1.83473713E-03  1.40373228E-02  6.88426223E-02  2.32184443E-01  4.67941348E-01
  3.62311985E-01 -1.19332420E-01 -1.60854152E-01  1.14345644E+00  1.00000000E+00
  1.00000000E+00  1.00000000E+00  3.34946043E-02  2.34726953E-01  8.13757326E-01
  1.00000000E+00  1.83473713E-03  1.40373228E-02  6.88426223E-02  2.32184443E-01
  4.67941348E-01  3.62311985E-01 -1.19332420E-01 -1.60854152E-01  1.14345644E+00
  1.00000000E+00  1.00000000E+00  1.00000000E+00  1.83473713E-03  1.40373228E-02
  6.88426223E-02  2.32184443E-01  4.67941348E-01  3.62311985E-01 -1.19332420E-01
 -1.60854152E-01  1.14345644E+00  1.00000000E+00  1.00000000E+00  1.00000000E+00
  1.83473713E-03  1.40373228E-02  6.88426223E-02  2.32184443E-01  4.67941348E-01
  3.62311985E-01 -1.19332420E-01 -1.60854152E-01  1.14345644E+00  1.00000000E+00
  1.00000000E+00  1.00000000E+00  3.34946043E-02  2.34726953E-01  8.13757326E-01
  1.00000000E+00  3.34946043E-02  2.34726953E-01  8.13757326E-01  1.00000000E+00
  3.34946043E-02  2.34726953E-01  8.13757326E-01  1.00000000E+00  3.34946043E-02
  2.34726953E-01  8.13757326E-01  1.00000000E+00  3.34946043E-02  2.34726953E-01
  8.13757326E-01  1.00000000E+00  3.34946043E-02  2.34726953E-01  8.13757326E-01
  1.00000000E+00  3.34946043E-02  2.34726953E-01  8.13757326E-01  1.00000000E+00
  1.83107443E-03  1.39501722E-02  6.84450781E-02  2.32714336E-01  4.70192898E-01
  3.58520853E-01 -1.10777550E-01 -1.48026263E-01  1.13076702E+00  1.00000000E+00
  1.00000000E+00  1.00000000E+00  1.83107443E-03  1.39501722E-02  6.84450781E-02
  2.32714336E-01  4.70192898E-01  3.58520853E-01 -1.10777550E-01 -1.48026263E-01
  1.13076702E+00  1.00000000E+00  1.00000000E+00  1.00000000E+00
P(S=P) Contraction coefficients            R   N=         224
  0.00000000E+00  0.00000000E+00  0.00000000E+00  0.00000000E+00  0.00000000E+00
  0.00000000E+00  6.89990666E-02  3.16423961E-01  7.44308291E-01  1.00000000E+00
  1.00000000E+00  0.00000000E+00  0.00000000E+00  0.00000000E+00  0.00000000E+00
  0.00000000E+00  0.00000000E+00  0.00000000E+00  6.89990666E-02  3.16423961E-01
  7.44308291E-01  1.00000000E+00  1.00000000E+00  0.00000000E+00  0.00000000E+00
  0.00000000E+00  0.00000000E+00  0.00000000E+00  0.00000000E+00  0.00000000E+00
  6.89990666E-02  3.16423961E-01  7.44308291E-01  1.00000000E+00  1.00000000E+00
  0.00000000E+00  0.00000000E+00  0.00000000E+00  0.00000000E+00  0.00000000E+00
  0.00000000E+00  0.00000000E+00  6.89990666E-02  3.16423961E-01  7.44308291E-01
  1.00000000E+00  1.00000000E+00  0.00000000E+00  0.00000000E+00  0.00000000E+00
  0.00000000E+00  0.00000000E+00  0.00000000E+00  0.00000000E+00  6.89990666E-02
  3.16423961E-01  7.44308291E-01  1.00000000E+00  1.00000000E+00  0.00000000E+00
  0.00000000E+00  0.00000000E+00  0.00000000E+00  0.00000000E+00  0.00000000E+00
  0.00000000E+00  6.89990666E-02  3.16423961E-01  7.44308291E-01  1.00000000E+00
  1.00000000E+00  0.00000000E+00  0.00000000E+00  0.00000000E+00  0.00000000E+00
  0.00000000E+00  0.00000000E+00  0.00000000E+00  6.89990666E-02  3.16423961E-01
  7.44308291E-01  1.00000000E+00  1.00000000E+00  0.00000000E+00  0.00000000E+00
  0.00000000E+00  0.00000000E+00  0.00000000E+00  0.00000000E+00  0.00000000E+00
  6.89990666E-02  3.16423961E-01  7.44308291E-01  1.00000000E+00  1.00000000E+00
  0.00000000E+00  0.00000000E+00  0.00000000E+00  0.00000000E+00  0.00000000E+00
  0.00000000E+00  0.00000000E+00  6.89990666E-02  3.16423961E-01  7.44308291E-01
  1.00000000E+00  1.00000000E+00  0.00000000E+00  0.00000000E+00  0.00000000E+00
  0.00000000E+00  0.00000000E+00  0.00000000E+00  0.00000000E+00  6.89990666E-02
  3.16423961E-01  7.44308291E-01  1.00000000E+00  1.00000000E+00  0.00000000E+00
  0.00000000E+00  0.00000000E+00  0.00000000E+00  0.00000000E+00  0.00000000E+00
  0.00000000E+00  6.89990666E-02  3.16423961E-01  7.44308291E-01  1.00000000E+00
  1.00000000E+00  0.00000000E+00  0.00000000E+00  0.00000000E+00  0.00000000E+00
  0.00000000E+00  0.00000000E+00  0.00000000E+00  0.00000000E+00  0.00000000E+00
  0.00000000E+00  0.00000000E+00  6.89990666E-02  3.16423961E-01  7.44308291E-01
  1.00000000E+00  1.00000000E+00  0.00000000E+00  0.00000000E+00  0.00000000E+00
  0.00000000E+00  0.00000000E+00  0.00000000E+00  0.00000000E+00  6.89990666E-02
  3.16423961E-01  7.44308291E-01  1.00000000E+00  1.00000000E+00  0.00000000E+00
  0.00000000E+00  0.00000000E+00  0.00000000E+00  0.00000000E+00  0.00000000E+00
  0.00000000E+00  6.89990666E-02  3.16423961E-01  7.44308291E-01  1.00000000E+00
  1.00000000E+00  0.00000000E+00  0.00000000E+00  0.00000000E+00  0.00000000E+00
  0.00000000E+00  0.00000000E+00  0.00000000E+00  0.00000000E+00  0.00000000E+00
  0.00000000E+00  0.00000000E+00  0.00000000E+00  0.00000000E+00  0.00000000E+00
  0.00000000E+00  0.00000000E+00  0.00000000E+00  0.00000000E+00  0.00000000E+00
  0.00000000E+00  0.00000000E+00  0.00000000E+00  0.00000000E+00  0.00000000E+00
  0.00000000E+00  0.00000000E+00  0.00000000E+00  0.00000000E+00  0.00000000E+00
  0.00000000E+00  0.00000000E+00  0.00000000E+00  0.00000000E+00  0.00000000E+00
  0.00000000E+00  7.08742682E-02  3.39752839E-01  7.27158577E-01  1.00000000E+00
  1.00000000E+00  0.00000000E+00  0.00000000E+00  0.00000000E+00  0.00000000E+00
  0.00000000E+00  0.00000000E+00  0.00000000E+00  7.08742682E-02  3.39752839E-01
  7.27158577E-01  1.00000000E+00  1.00000000E+00  0.00000000E+00
Coordinates of each shell                  R   N=         288
 -6.98294392E+00 -1.32292316E+00  9.82201955E-04 -6.98294392E+00 -1.32292316E+00
  9.82201955E-04 -6.98294392E+00 -1.32292316E+00  9.82201955E-04 -6.98294392E+00
 -1.32292316E+00  9.82201955E-04 -6.98294392E+00 -1.32292316E+00  9.82201955E-04
 -4.70703281E+00 -2.64282098E+00  2.39596277E-04 -4.70703281E+00 -2.64282098E+00
  2.39596277E-04 -4.70703281E+00 -2.64282098E+00  2.39596277E-04 -4.70703281E+00
 -2.64282098E+00  2.39596277E-04 -4.70703281E+00 -2.64282098E+00  2.39596277E-04
 -2.41003450E+00 -1.33104680E+00 -1.51350266E-04 -2.41003450E+00 -1.33104680E+00
 -1.51350266E-04 -2.41003450E+00 -1.33104680E+00 -1.51350266E-04 -2.41003450E+00
 -1.33104680E+00 -1.51350266E-04 -2.41003450E+00 -1.33104680E+00 -1.51350266E-04
 -2.41003533E+00  1.33104556E+00  7.27712537E-05 -2.41003533E+00  1.33104556E+00
  7.27712537E-05 -2.41003533E+00  1.33104556E+00  7.27712537E-05 -2.41003533E+00
  1.33104556E+00  7.27712537E-05 -2.41003533E+00  1.33104556E+00  7.27712537E-05
 -4.70703376E+00  2.64281989E+00  6.25761812E-04 -4.70703376E+00  2.64281989E+00
  6.25761812E-04 -4.70703376E+00  2.64281989E+00  6.25761812E-04 -4.70703376E+00
  2.64281989E+00  6.25761812E-04 -4.70703376E+00  2.64281989E+00  6.25761812E-04
 -6.98294439E+00  1.32292255E+00  1.19526858E-03 -6.98294439E+00  1.32292255E+00
  1.19526858E-03 -6.98294439E+00  1.32292255E+00  1.19526858E-03 -6.98294439E+00
  1.32292255E+00  1.19526858E-03 -6.98294439E+00  1.32292255E+00  1.19526858E-03
  7.91121347E-07 -2.79409481E+00 -6.10742689E-04  7.91121347E-07 -2.79409481E+00
 -6.10742689E-04  7.91121347E-07 -2.79409481E+00 -6.10742689E-04  7.91121347E-07
 -2.79409481E+00 -6.10742689E-04  7.91121347E-07 -2.79409481E+00 -6.10742689E-04
 -1.01613874E-06  2.79409526E+00 -3.95521779E-04 -1.01613874E-06  2.79409526E+00
 -3.95521779E-04 -1.01613874E-06  2.79409526E+00 -3.95521779E-04 -1.01613874E-06
  2.79409526E+00 -3.95521779E-04 -1.01613874E-06  2.79409526E+00 -3.95521779E-04
  2.41003534E+00  1.33104546E+00 -1.42808704E-04  2.41003534E+00  1.33104546E+00
 -1.42808704E-04  2.41003534E+00  1.33104546E+00 -1.42808704E-04  2.41003534E+00
  1.33104546E+00 -1.42808704E-04  2.41003534E+00  1.33104546E+00 -1.42808704E-04
  2.41003507E+00 -1.33104648E+00  9.04590903E-05  2.41003507E+00 -1.33104648E+00
  9.04590903E-05  2.41003507E+00 -1.33104648E+00  9.04590903E-05  2.41003507E+00
 -1.33104648E+00  9.04590903E-05  2.41003507E+00 -1.33104648E+00  9.04590903E-05
  4.70703352E+00 -2.64282006E+00  7.77355642E-04  4.70703352E+00 -2.64282006E+00
  7.77355642E-04  4.70703352E+00 -2.64282006E+00  7.77355642E-04  4.70703352E+00
 -2.64282006E+00  7.77355642E-04  4.70703352E+00 -2.64282006E+00  7.77355642E-04
  4.65630006E+00 -4.69272292E+00  8.86109381E-04  4.65630006E+00 -4.69272292E+00
  8.86109381E-04  6.98294409E+00 -1.32292244E+00  1.26847657E-03  6.98294409E+00
 -1.32292244E+00  1.26847657E-03  6.98294409E+00 -1.32292244E+00  1.26847657E-03
  6.98294409E+00 -1.32292244E+00  1.26847657E-03  6.98294409E+00 -1.32292244E+00
  1.26847657E-03  6.98294401E+00  1.32292316E+00  8.79249675E-04  6.98294401E+00
  1.32292316E+00  8.79249675E-04  6.98294401E+00  1.32292316E+00  8.79249675E-04
  6.98294401E+00  1.32292316E+00  8.79249675E-04  6.98294401E+00  1.32292316E+00
  8.79249675E-04  4.70703298E+00  2.64281992E+00  1.19296311E-04  4.70703298E+00
  2.64281992E+00  1.19296311E-04  4.70703298E+00  2.64281992E+00  1.19296311E-04
  4.70703298E+00  2.64281992E+00  1.19296311E-04  4.70703298E+00  2.64281992E+00
  1.19296311E-04 -8.76139370E+00 -2.34904392E+00  1.33293513E-03 -8.76139370E+00
 -2.34904392E+00  1.33293513E-03 -4.65630092E+00 -4.69272349E+00  1.31503942E-05
 -4.65630092E+00 -4.69272349E+00  1.31503942E-05 -4.65629743E+00  4.69272252E+00
  6.49704642E-04 -4.65629743E+00  4.69272252E+00  6.49704642E-04 -8.76139592E+00
  2.34904012E+00  1.80776661E-03 -8.76139592E+00  2.34904012E+00  1.80776661E-03
  8.76139490E+00 -2.34904145E+00  1.91988406E-03  8.76139490E+00 -2.34904145E+00
  1.91988406E-03  8.76139493E+00  2.34904220E+00  1.18232395E-03  8.76139493E+00
  2.34904220E+00  1.18232395E-03  4.65629720E+00  4.69272272E+00 -1.54411622E-04
  4.65629720E+00  4.69272272E+00 -1.54411622E-04 -7.48725181E-07  5.11151959E+00
 -2.27629061E-03 -7.48725181E-07  5.11151959E+00 -2.27629061E-03 -7.48725181E-07
  5.11151959E+00 -2.27629061E-03 -7.48725181E-07  5.11151959E+00 -2.27629061E-03
 -7.48725181E-07  5.11151959E+00 -2.27629061E-03  8.07166715E-07 -5.11151687E+00
 -2.39090250E-03  8.07166715E-07 -5.11151687E+00 -2.39090250E-03  8.07166715E-07
 -5.11151687E+00 -2.39090250E-03  8.07166715E-07 -5.11151687E+00 -2.39090250E-03
  8.07166715E-07 -5.11151687E+00 -2.39090250E-03
Constraint Structure                       R   N=          72
 -6.98294392E+00 -1.32292316E+00  9.82201955E-04 -4.70703281E+00 -2.64282098E+00
  2.39596277E-04 -2.41003450E+00 -1.33104680E+00 -1.51350266E-04 -2.41003533E+00
  1.33104556E+00  7.27712537E-05 -4.70703376E+00  2.64281989E+00  6.25761812E-04
 -6.98294439E+00  1.32292255E+00  1.19526858E-03  7.91121347E-07 -2.79409481E+00
 -6.10742689E-04 -1.01613874E-06  2.79409526E+00 -3.95521779E-04  2.41003534E+00
  1.33104546E+00 -1.42808704E-04  2.41003507E+00 -1.33104648E+00  9.04590903E-05
  4.70703352E+00 -2.64282006E+00  7.77355642E-04  4.65630006E+00 -4.69272292E+00
  8.86109381E-04  6.98294409E+00 -1.32292244E+00  1.26847657E-03  6.98294401E+00
  1.32292316E+00  8.79249675E-04  4.70703298E+00  2.64281992E+00  1.19296311E-04
 -8.76139370E+00 -2.34904392E+00  1.33293513E-03 -4.65630092E+00 -4.69272349E+00
  1.31503942E-05 -4.65629743E+00  4.69272252E+00  6.49704642E-04 -8.76139592E+00
  2.34904012E+00  1.80776661E-03  8.76139490E+00 -2.34904145E+00  1.91988406E-03
  8.76139493E+00  2.34904220E+00  1.18232395E-03  4.65629720E+00  4.69272272E+00
 -1.54411622E-04 -7.48725181E-07  5.11151959E+00 -2.27629061E-03  8.07166715E-07
 -5.11151687E+00 -2.39090250E-03
Num ILSW                                   I              100
ILSW                                       I   N=         100
           0           1           0           0           2           0
           0           0           0           0         402          -1
           0           0           0           0           0           0