 Entering Link 1 = C:\G09W\l1.exe PID=     18268.
  
 Copyright (c) 1988,1990,1992,1993,1995,1998,2003,2009,2013,
            Gaussian, Inc.  All Rights Reserved.
  
 This is part of the Gaussian(R) 09 program.  It is based on
 the Gaussian(R) 03 system (copyright 2003, Gaussian, Inc.),
 the Gaussian(R) 98 system (copyright 1998, Gaussian, Inc.),
 the Gaussian(R) 94 system (copyright 1995, Gaussian, Inc.),
 the Gaussian 92(TM) system (copyright 1992, Gaussian, Inc.),
 the Gaussian 90(TM) system (copyright 1990, Gaussian, Inc.),
 the Gaussian 88(TM) system (copyright 1988, Gaussian, Inc.),
 the Gaussian 86(TM) system (copyright 1986, Carnegie Mellon
 University), and the Gaussian 82(TM) system (copyright 1983,
 Carnegie Mellon University). Gaussian is a federally registered
 trademark of Gaussian, Inc.
  
 This software contains proprietary and confidential information,
 including trade secrets, belonging to Gaussian, Inc.
  
 This software is provided under written license and may be
 used, copied, transmitted, or stored only in accord with that
 written license.
  
 The following legend is applicable only to US Government
 contracts under FAR:
  
                    RESTRICTED RIGHTS LEGEND
  
 Use, reproduction and disclosure by the US Government is
 subject to restrictions as set forth in subparagraphs (a)
 and (c) of the Commercial Computer Software - Restricted
 Rights clause in FAR 52.227-19.
  
 Gaussian, Inc.
 340 Quinnipiac St., Bldg. 40, Wallingford CT 06492
  
  
 ---------------------------------------------------------------
 Warning -- This program may not be used in any manner that
 competes with the business of Gaussian, Inc. or will provide
 assistance to any competitor of Gaussian, Inc.  The licensee
 of this program is prohibited from giving any competitor of
 Gaussian, Inc. access to this program.  By using this program,
 the user acknowledges that Gaussian, Inc. is engaged in the
 business of creating and licensing software in the field of
 computational chemistry and represents and warrants to the
 licensee that it is not a competitor of Gaussian, Inc. and that
 it will not use this program in any manner prohibited above.
 ---------------------------------------------------------------
  

 Cite this work as:
 Gaussian 09, Revision D.01,
 M. J. Frisch, G. W. Trucks, H. B. Schlegel, G. E. Scuseria, 
 M. A. Robb, J. R. Cheeseman, G. Scalmani, V. Barone, B. Mennucci, 
 G. A. Petersson, H. Nakatsuji, M. Caricato, X. Li, H. P. Hratchian, 
 A. F. Izmaylov, J. Bloino, G. Zheng, J. L. Sonnenberg, M. Hada, 
 M. Ehara, K. Toyota, R. Fukuda, J. Hasegawa, M. Ishida, T. Nakajima, 
 Y. Honda, O. Kitao, H. Nakai, T. Vreven, J. A. Montgomery, Jr., 
 J. E. Peralta, F. Ogliaro, M. Bearpark, J. J. Heyd, E. Brothers, 
 K. N. Kudin, V. N. Staroverov, T. Keith, R. Kobayashi, J. Normand, 
 K. Raghavachari, A. Rendell, J. C. Burant, S. S. Iyengar, J. Tomasi, 
 M. Cossi, N. Rega, J. M. Millam, M. Klene, J. E. Knox, J. B. Cross, 
 V. Bakken, C. Adamo, J. Jaramillo, R. Gomperts, R. E. Stratmann, 
 O. Yazyev, A. J. Austin, R. Cammi, C. Pomelli, J. W. Ochterski, 
 R. L. Martin, K. Morokuma, V. G. Zakrzewski, G. A. Voth, 
 P. Salvador, J. J. Dannenberg, S. Dapprich, A. D. Daniels, 
 O. Farkas, J. B. Foresman, J. V. Ortiz, J. Cioslowski, 
 and D. J. Fox, Gaussian, Inc., Wallingford CT, 2013.
 
 ******************************************
 Gaussian 09:  EM64W-G09RevD.01 13-Apr-2013
                08-Jun-2021 
 ******************************************
 %chk=C:\Users\Hana\Downloads\1_pp_td.chk
 --------------------------------------------------
 #p td(NStates=10) b3lyp/6-31g(d,p) nosymm pop=full
 --------------------------------------------------
 1/38=1/1;
 2/12=2,15=1,17=6,18=5,40=1/2;
 3/5=1,6=6,7=101,11=9,16=1,25=1,30=1,74=-5/1,2,8,3;
 4//1;
 5/5=2,38=5/2;
 8/6=1,10=2,108=10/1;
 9/41=10,42=1,70=2/14;
 6/7=3/1;
 99/5=1,9=1/99;
 Leave Link    1 at Tue Jun 08 17:53:00 2021, MaxMem=           0 cpu:         0.0
 (Enter C:\G09W\l101.exe)
 --
 td
 --
 Symbolic Z-matrix:
 Charge =  1 Multiplicity = 1
 C                    -0.00002   0.13566   0.00005 
 C                     1.19923  -0.57761   0. 
 H                    -0.00005   1.21754   0.00013 
 H                     1.15806  -1.66463   0.00001 
 C                    -1.19925  -0.57762   0.00002 
 H                    -1.15808  -1.66464  -0.00002 
 N                    -2.42077  -0.06744   0.00005 
 N                     2.42076  -0.06744  -0.00005 
 C                     3.61118  -0.92473   0.00001 
 H                     3.3136   -1.97357   0.00024 
 H                     4.21413  -0.72514  -0.89046 
 H                     4.21426  -0.72481   0.89032 
 C                     2.63941   1.38384  -0.00002 
 H                     2.19894   1.83719   0.89306 
 H                     3.71038   1.58087  -0.00043 
 H                     2.1983    1.8373   -0.89273 
 C                    -2.63934   1.38386   0. 
 H                    -2.19881   1.83722   0.89305 
 H                    -2.19824   1.83723  -0.89276 
 H                    -3.71031   1.58094  -0.00035 
 C                    -3.61121  -0.92471  -0.00005 
 H                    -4.21398  -0.72519  -0.89066 
 H                    -3.31364  -1.97355   0.00034 
 H                    -4.21445  -0.72469   0.89012 
 
 NAtoms=     24 NQM=       24 NQMF=       0 NMMI=      0 NMMIF=      0
                NMic=       0 NMicF=      0.
                    Isotopes and Nuclear Properties:
 (Nuclear quadrupole moments (NQMom) in fm**2, nuclear magnetic moments (NMagM)
  in nuclear magnetons)

  Atom         1           2           3           4           5           6           7           8           9          10
 IAtWgt=          12          12           1           1          12           1          14          14          12           1
 AtmWgt=  12.0000000  12.0000000   1.0078250   1.0078250  12.0000000   1.0078250  14.0030740  14.0030740  12.0000000   1.0078250
 NucSpn=           0           0           1           1           0           1           2           2           0           1
 AtZEff=   0.0000000   0.0000000   0.0000000   0.0000000   0.0000000   0.0000000   0.0000000   0.0000000   0.0000000   0.0000000
 NQMom=    0.0000000   0.0000000   0.0000000   0.0000000   0.0000000   0.0000000   2.0440000   2.0440000   0.0000000   0.0000000
 NMagM=    0.0000000   0.0000000   2.7928460   2.7928460   0.0000000   2.7928460   0.4037610   0.4037610   0.0000000   2.7928460
 AtZNuc=   6.0000000   6.0000000   1.0000000   1.0000000   6.0000000   1.0000000   7.0000000   7.0000000   6.0000000   1.0000000

  Atom        11          12          13          14          15          16          17          18          19          20
 IAtWgt=           1           1          12           1           1           1          12           1           1           1
 AtmWgt=   1.0078250   1.0078250  12.0000000   1.0078250   1.0078250   1.0078250  12.0000000   1.0078250   1.0078250   1.0078250
 NucSpn=           1           1           0           1           1           1           0           1           1           1
 AtZEff=   0.0000000   0.0000000   0.0000000   0.0000000   0.0000000   0.0000000   0.0000000   0.0000000   0.0000000   0.0000000
 NQMom=    0.0000000   0.0000000   0.0000000   0.0000000   0.0000000   0.0000000   0.0000000   0.0000000   0.0000000   0.0000000
 NMagM=    2.7928460   2.7928460   0.0000000   2.7928460   2.7928460   2.7928460   0.0000000   2.7928460   2.7928460   2.7928460
 AtZNuc=   1.0000000   1.0000000   6.0000000   1.0000000   1.0000000   1.0000000   6.0000000   1.0000000   1.0000000   1.0000000

  Atom        21          22          23          24
 IAtWgt=          12           1           1           1
 AtmWgt=  12.0000000   1.0078250   1.0078250   1.0078250
 NucSpn=           0           1           1           1
 AtZEff=   0.0000000   0.0000000   0.0000000   0.0000000
 NQMom=    0.0000000   0.0000000   0.0000000   0.0000000
 NMagM=    0.0000000   2.7928460   2.7928460   2.7928460
 AtZNuc=   6.0000000   1.0000000   1.0000000   1.0000000
 Leave Link  101 at Tue Jun 08 17:53:00 2021, MaxMem=    33554432 cpu:         0.0
 (Enter C:\G09W\l202.exe)
                          Input orientation:                          
 ---------------------------------------------------------------------
 Center     Atomic      Atomic             Coordinates (Angstroms)
 Number     Number       Type             X           Y           Z
 ---------------------------------------------------------------------
      1          6           0       -0.000019    0.135661    0.000045
      2          6           0        1.199225   -0.577612    0.000003
      3          1           0       -0.000051    1.217540    0.000129
      4          1           0        1.158065   -1.664634    0.000013
      5          6           0       -1.199253   -0.577623    0.000025
      6          1           0       -1.158078   -1.664644   -0.000019
      7          7           0       -2.420770   -0.067436    0.000052
      8          7           0        2.420761   -0.067442   -0.000048
      9          6           0        3.611183   -0.924734    0.000013
     10          1           0        3.313602   -1.973571    0.000239
     11          1           0        4.214130   -0.725137   -0.890459
     12          1           0        4.214259   -0.724807    0.890320
     13          6           0        2.639407    1.383841   -0.000022
     14          1           0        2.198938    1.837188    0.893062
     15          1           0        3.710381    1.580865   -0.000427
     16          1           0        2.198301    1.837298   -0.892733
     17          6           0       -2.639341    1.383861    0.000001
     18          1           0       -2.198810    1.837223    0.893047
     19          1           0       -2.198238    1.837227   -0.892760
     20          1           0       -3.710307    1.580936   -0.000349
     21          6           0       -3.611212   -0.924712   -0.000047
     22          1           0       -4.213984   -0.725193   -0.890656
     23          1           0       -3.313635   -1.973547    0.000342
     24          1           0       -4.214453   -0.724690    0.890124
 ---------------------------------------------------------------------
                    Distance matrix (angstroms):
                    1          2          3          4          5
     1  C    0.000000
     2  C    1.395330   0.000000
     3  H    1.081879   2.158896   0.000000
     4  H    2.140612   1.087801   3.106148   0.000000
     5  C    1.395326   2.398478   2.158865   2.595870   0.000000
     6  H    2.140607   2.595866   3.106125   2.316143   1.087801
     7  N    2.429255   3.655768   2.740628   3.919068   1.323780
     8  N    2.429285   1.323791   2.740713   2.036031   3.655787
     9  C    3.763671   2.436809   4.198851   2.562273   4.822943
    10  H    3.927970   2.533632   4.600379   2.177564   4.723826
    11  H    4.392383   3.147116   4.725088   3.318905   5.488118
    12  H    4.392395   3.147182   4.724993   3.319072   5.488205
    13  C    2.919679   2.433397   2.644691   3.389333   4.310760
    14  H    2.920289   2.761926   2.452926   3.760812   4.263394
    15  H    3.981920   3.311333   3.728177   4.128872   5.363168
    16  H    2.919800   2.761687   2.452356   3.760667   4.262890
    17  C    2.919592   4.310680   2.644525   4.869662   2.433366
    18  H    2.920179   4.263284   2.452723   4.932455   2.761898
    19  H    2.919691   4.262773   2.452201   4.932022   2.761619
    20  H    3.981840   5.363099   3.728010   5.851048   3.311309
    21  C    3.763655   4.822943   4.198777   4.826332   2.436804
    22  H    4.392256   5.487976   4.724928   5.525825   3.147013
    23  H    3.927952   4.723827   4.600313   4.482357   2.533617
    24  H    4.392482   5.488338   4.724991   5.526277   3.147274
                    6          7          8          9         10
     6  H    0.000000
     7  N    2.036042   0.000000
     8  N    3.919074   4.841530   0.000000
     9  C    4.826316   6.092571   1.466988   0.000000
    10  H    4.482339   6.042878   2.104873   1.090235   0.000000
    11  H    5.525955   6.726625   2.107503   1.093766   1.778448
    12  H    5.526120   6.726687   2.107491   1.093762   1.778436
    13  C    4.869719   5.264180   1.467662   2.504769   3.424435
    14  H    4.932543   5.076097   2.115294   3.228031   4.069581
    15  H    5.851088   6.348851   2.092854   2.507562   3.576513
    16  H    4.932121   5.075519   2.115280   3.228320   4.069891
    17  C    3.389324   1.467663   5.264115   6.663232   6.834462
    18  H    3.760819   2.115285   5.076002   6.494762   6.760617
    19  H    3.760588   2.115272   5.075416   6.494217   6.760179
    20  H    4.128881   2.092853   6.348790   7.738385   7.872091
    21  C    2.562297   1.466995   6.092586   7.222395   7.003796
    22  H    3.318789   2.107515   6.726489   7.878220   7.682232
    23  H    2.177578   2.104868   6.042891   7.003793   6.627238
    24  H    3.319231   2.107489   6.726845   7.878636   7.682657
                   11         12         13         14         15
    11  H    0.000000
    12  H    1.780779   0.000000
    13  C    2.778565   2.778357   0.000000
    14  H    3.715839   3.259654   1.094137   0.000000
    15  H    2.522611   2.522588   1.088946   1.774397   0.000000
    16  H    3.260313   3.715877   1.094134   1.785795   1.774360
    17  C    7.225708   7.225716   5.278747   4.940851   6.352777
    18  H    7.132488   6.905900   4.940797   4.397748   5.981852
    19  H    6.905374   7.131866   4.940177   4.745980   5.981117
    20  H    8.301022   8.301113   6.352772   5.981891   7.420687
    21  C    7.878365   7.878496   6.663306   6.494889   7.738452
    22  H    8.428114   8.614357   7.225664   7.132532   8.300962
    23  H    7.682402   7.682486   6.834528   6.760704   7.872144
    24  H    8.614609   8.428712   7.225902   6.906144   8.301305
                   16         17         18         19         20
    16  H    0.000000
    17  C    4.940178   0.000000
    18  H    4.745903   1.094137   0.000000
    19  H    4.396539   1.094137   1.785807   0.000000
    20  H    5.981114   1.088948   1.774390   1.774383   0.000000
    21  C    6.494307   2.504804   3.228123   3.228272   2.507606
    22  H    6.905343   2.778647   3.715978   3.260250   2.522809
    23  H    6.760293   3.424451   4.069610   4.069858   3.576548
    24  H    7.132025   2.778360   3.259789   3.715807   2.522502
                   21         22         23         24
    21  C    0.000000
    22  H    1.093767   0.000000
    23  H    1.090233   1.778452   0.000000
    24  H    1.093761   1.780779   1.778434   0.000000
 Symmetry turned off by external request.
 Stoichiometry    C7H15N2(1+)
 Framework group  C1[X(C7H15N2)]
 Deg. of freedom    66
 Full point group                 C1      NOp   1
 Rotational constants (GHZ):      4.3222627      0.6097144      0.5416809
 Leave Link  202 at Tue Jun 08 17:53:00 2021, MaxMem=    33554432 cpu:         0.0
 (Enter C:\G09W\l301.exe)
 Standard basis: 6-31G(d,p) (6D, 7F)
 Ernie: Thresh=  0.10000D-02 Tol=  0.10000D-05 Strict=F.
   210 basis functions,   357 primitive gaussians,   210 cartesian basis functions
    35 alpha electrons       35 beta electrons
       nuclear repulsion energy       449.6612279246 Hartrees.
 IExCor=  402 DFT=T Ex+Corr=B3LYP ExCW=0 ScaHFX=  0.200000
 ScaDFX=  0.800000  0.720000  1.000000  0.810000 ScalE2=  1.000000  1.000000
 IRadAn=      0 IRanWt=     -1 IRanGd=            0 ICorTp=0 IEmpDi=  4
 NAtoms=   24 NActive=   24 NUniq=   24 SFac= 1.00D+00 NAtFMM=   60 NAOKFM=F Big=F
 Integral buffers will be    131072 words long.
 Regular integral format.
 Two-electron integral symmetry is turned off.
 Leave Link  301 at Tue Jun 08 17:53:01 2021, MaxMem=    33554432 cpu:         0.0
 (Enter C:\G09W\l302.exe)
 NPDir=0 NMtPBC=     1 NCelOv=     1 NCel=       1 NClECP=     1 NCelD=      1
         NCelK=      1 NCelE2=     1 NClLst=     1 CellRange=     0.0.
 One-electron integrals computed using PRISM.
 NBasis=   210 RedAO= T EigKep=  1.66D-03  NBF=   210
 NBsUse=   210 1.00D-06 EigRej= -1.00D+00 NBFU=   210
 Precomputing XC quadrature grid using
 IXCGrd= 4 IRadAn=           0 IRanWt=          -1 IRanGd=           0 AccXCQ= 0.00D+00.
 Generated NRdTot=       0 NPtTot=           0 NUsed=           0 NTot=          32
 NSgBfM=   210   210   210   210   210 MxSgAt=    24 MxSgA2=    24.
 Leave Link  302 at Tue Jun 08 17:53:01 2021, MaxMem=    33554432 cpu:         0.0
 (Enter C:\G09W\l308.exe)
 Leave Link  308 at Tue Jun 08 17:53:01 2021, MaxMem=    33554432 cpu:         0.0
 (Enter C:\G09W\l303.exe)
 DipDrv:  MaxL=1.
 Leave Link  303 at Tue Jun 08 17:53:01 2021, MaxMem=    33554432 cpu:         0.0
 (Enter C:\G09W\l401.exe)
 ExpMin= 1.61D-01 ExpMax= 4.17D+03 ExpMxC= 6.27D+02 IAcc=1 IRadAn=         1 AccDes= 0.00D+00
 Harris functional with IExCor=  402 and IRadAn=       1 diagonalized for initial guess.
 HarFok:  IExCor=  402 AccDes= 0.00D+00 IRadAn=         1 IDoV= 1 UseB2=F ITyADJ=14
 ICtDFT=  3500011 ScaDFX=  1.000000  1.000000  1.000000  1.000000
 FoFCou: FMM=F IPFlag=           0 FMFlag=      100000 FMFlg1=           0
         NFxFlg=           0 DoJE=T BraDBF=F KetDBF=T FulRan=T
         wScrn=  0.000000 ICntrl=     500 IOpCl=  0 I1Cent=   200000004 NGrid=           0
         NMat0=    1 NMatS0=      1 NMatT0=    0 NMatD0=    1 NMtDS0=    0 NMtDT0=    0
 Symmetry not used in FoFCou.
 Harris En= -385.091333287101    
 JPrj=0 DoOrth=F DoCkMO=F.
 Leave Link  401 at Tue Jun 08 17:53:04 2021, MaxMem=    33554432 cpu:         3.0
 (Enter C:\G09W\l502.exe)
 Closed shell SCF:
 Using DIIS extrapolation, IDIIS=  1040.
 Two-electron integral symmetry not used.
 IVT=      153418 IEndB=      153418 NGot=    33554432 MDV=    33461965
 LenX=    33461965 LenY=    33417424
 Requested convergence on RMS density matrix=1.00D-08 within 128 cycles.
 Requested convergence on MAX density matrix=1.00D-06.
 Requested convergence on             energy=1.00D-06.
 No special actions if energy rises.
 Fock matrices will be formed incrementally for  20 cycles.
 Integral accuracy reduced to 1.0D-05 until final iterations.

 Cycle   1  Pass 0  IDiag  1:
 FoFJK:  IHMeth= 1 ICntrl=       0 DoSepK=F KAlg= 0 I1Cent=   0 FoldK=F
 IRaf= 830000000 NMat=   1 IRICut=       1 DoRegI=T DoRafI=F ISym2E= 0.
 FoFCou: FMM=F IPFlag=           0 FMFlag=      100000 FMFlg1=           0
         NFxFlg=           0 DoJE=F BraDBF=F KetDBF=F FulRan=T
         wScrn=  0.000000 ICntrl=       0 IOpCl=  0 I1Cent=           0 NGrid=           0
         NMat0=    1 NMatS0=      1 NMatT0=    0 NMatD0=    1 NMtDS0=    0 NMtDT0=    0
 Symmetry not used in FoFCou.
 E= -384.889598889452    
 DIIS: error= 2.50D-02 at cycle   1 NSaved=   1.
 NSaved= 1 IEnMin= 1 EnMin= -384.889598889452     IErMin= 1 ErrMin= 2.50D-02
 ErrMax= 2.50D-02  0.00D+00 EMaxC= 1.00D-01 BMatC= 1.88D-01 BMatP= 1.88D-01
 IDIUse=3 WtCom= 7.50D-01 WtEn= 2.50D-01
 Coeff-Com:  0.100D+01
 Coeff-En:   0.100D+01
 Coeff:      0.100D+01
 Gap=     0.156 Goal=   None    Shift=    0.000
 GapD=    0.156 DampG=1.000 DampE=0.500 DampFc=0.5000 IDamp=-1.
 Damping current iteration by 5.00D-01
 RMSDP=3.73D-03 MaxDP=1.51D-01              OVMax= 1.90D-01

 Cycle   2  Pass 0  IDiag  1:
 RMSU=  1.83D-03    CP:  9.82D-01
 E= -384.979983449874     Delta-E=       -0.090384560423 Rises=F Damp=T
 DIIS: error= 6.67D-03 at cycle   2 NSaved=   2.
 NSaved= 2 IEnMin= 2 EnMin= -384.979983449874     IErMin= 2 ErrMin= 6.67D-03
 ErrMax= 6.67D-03  0.00D+00 EMaxC= 1.00D-01 BMatC= 1.36D-02 BMatP= 1.88D-01
 IDIUse=3 WtCom= 9.33D-01 WtEn= 6.67D-02
 Coeff-Com:  0.263D-01 0.974D+00
 Coeff-En:   0.264D-01 0.974D+00
 Coeff:      0.263D-01 0.974D+00
 Gap=     0.174 Goal=   None    Shift=    0.000
 RMSDP=9.83D-04 MaxDP=3.52D-02 DE=-9.04D-02 OVMax= 1.35D-01

 Cycle   3  Pass 0  IDiag  1:
 RMSU=  9.73D-04    CP:  9.75D-01  9.76D-01
 E= -385.073613164868     Delta-E=       -0.093629714993 Rises=F Damp=F
 DIIS: error= 1.02D-02 at cycle   3 NSaved=   3.
 NSaved= 3 IEnMin= 3 EnMin= -385.073613164868     IErMin= 2 ErrMin= 6.67D-03
 ErrMax= 1.02D-02  0.00D+00 EMaxC= 1.00D-01 BMatC= 9.05D-03 BMatP= 1.36D-02
 IDIUse=3 WtCom= 8.98D-01 WtEn= 1.02D-01
 Coeff-Com: -0.371D-01 0.453D+00 0.584D+00
 Coeff-En:   0.000D+00 0.000D+00 0.100D+01
 Coeff:     -0.334D-01 0.407D+00 0.627D+00
 Gap=     0.170 Goal=   None    Shift=    0.000
 RMSDP=6.32D-04 MaxDP=2.97D-02 DE=-9.36D-02 OVMax= 5.28D-02

 Cycle   4  Pass 0  IDiag  1:
 RMSU=  4.77D-04    CP:  9.78D-01  1.06D+00  6.11D-01
 E= -385.077719366944     Delta-E=       -0.004106202076 Rises=F Damp=F
 DIIS: error= 6.14D-03 at cycle   4 NSaved=   4.
 NSaved= 4 IEnMin= 4 EnMin= -385.077719366944     IErMin= 4 ErrMin= 6.14D-03
 ErrMax= 6.14D-03  0.00D+00 EMaxC= 1.00D-01 BMatC= 4.32D-03 BMatP= 9.05D-03
 IDIUse=3 WtCom= 9.39D-01 WtEn= 6.14D-02
 Coeff-Com: -0.182D-01 0.103D+00 0.419D+00 0.496D+00
 Coeff-En:   0.000D+00 0.000D+00 0.359D+00 0.641D+00
 Coeff:     -0.171D-01 0.968D-01 0.415D+00 0.505D+00
 Gap=     0.168 Goal=   None    Shift=    0.000
 RMSDP=2.90D-04 MaxDP=1.26D-02 DE=-4.11D-03 OVMax= 2.21D-02

 Cycle   5  Pass 0  IDiag  1:
 RMSU=  8.63D-05    CP:  9.77D-01  1.04D+00  7.31D-01  4.86D-01
 E= -385.081581038750     Delta-E=       -0.003861671806 Rises=F Damp=F
 DIIS: error= 7.25D-04 at cycle   5 NSaved=   5.
 NSaved= 5 IEnMin= 5 EnMin= -385.081581038750     IErMin= 5 ErrMin= 7.25D-04
 ErrMax= 7.25D-04  0.00D+00 EMaxC= 1.00D-01 BMatC= 9.42D-05 BMatP= 4.32D-03
 IDIUse=3 WtCom= 9.93D-01 WtEn= 7.25D-03
 Coeff-Com: -0.476D-02 0.193D-01 0.159D+00 0.236D+00 0.590D+00
 Coeff-En:   0.000D+00 0.000D+00 0.000D+00 0.000D+00 0.100D+01
 Coeff:     -0.473D-02 0.191D-01 0.158D+00 0.235D+00 0.593D+00
 Gap=     0.169 Goal=   None    Shift=    0.000
 RMSDP=5.04D-05 MaxDP=2.26D-03 DE=-3.86D-03 OVMax= 4.79D-03

 Cycle   6  Pass 0  IDiag  1:
 RMSU=  3.19D-05    CP:  9.76D-01  1.04D+00  7.34D-01  5.18D-01  5.87D-01
 E= -385.081661596399     Delta-E=       -0.000080557649 Rises=F Damp=F
 DIIS: error= 2.28D-04 at cycle   6 NSaved=   6.
 NSaved= 6 IEnMin= 6 EnMin= -385.081661596399     IErMin= 6 ErrMin= 2.28D-04
 ErrMax= 2.28D-04  0.00D+00 EMaxC= 1.00D-01 BMatC= 1.07D-05 BMatP= 9.42D-05
 IDIUse=3 WtCom= 9.98D-01 WtEn= 2.28D-03
 Coeff-Com: -0.694D-03 0.296D-03 0.455D-01 0.776D-01 0.323D+00 0.555D+00
 Coeff-En:   0.000D+00 0.000D+00 0.000D+00 0.000D+00 0.426D-01 0.957D+00
 Coeff:     -0.692D-03 0.295D-03 0.454D-01 0.774D-01 0.322D+00 0.555D+00
 Gap=     0.169 Goal=   None    Shift=    0.000
 RMSDP=1.39D-05 MaxDP=5.44D-04 DE=-8.06D-05 OVMax= 1.07D-03

 Cycle   7  Pass 0  IDiag  1:
 RMSU=  4.06D-06    CP:  9.77D-01  1.04D+00  7.36D-01  5.23D-01  6.58D-01
                    CP:  6.41D-01
 E= -385.081671870686     Delta-E=       -0.000010274287 Rises=F Damp=F
 DIIS: error= 1.87D-05 at cycle   7 NSaved=   7.
 NSaved= 7 IEnMin= 7 EnMin= -385.081671870686     IErMin= 7 ErrMin= 1.87D-05
 ErrMax= 1.87D-05  0.00D+00 EMaxC= 1.00D-01 BMatC= 8.41D-08 BMatP= 1.07D-05
 IDIUse=1 WtCom= 1.00D+00 WtEn= 0.00D+00
 Coeff-Com: -0.111D-04-0.412D-03 0.880D-02 0.148D-01 0.801D-01 0.140D+00
 Coeff-Com:  0.757D+00
 Coeff:     -0.111D-04-0.412D-03 0.880D-02 0.148D-01 0.801D-01 0.140D+00
 Coeff:      0.757D+00
 Gap=     0.169 Goal=   None    Shift=    0.000
 RMSDP=2.22D-06 MaxDP=8.88D-05 DE=-1.03D-05 OVMax= 1.28D-04

 Initial convergence to 1.0D-05 achieved.  Increase integral accuracy.
 Cycle   8  Pass 1  IDiag  1:
 E= -385.081706551137     Delta-E=       -0.000034680452 Rises=F Damp=F
 DIIS: error= 3.18D-05 at cycle   1 NSaved=   1.
 NSaved= 1 IEnMin= 1 EnMin= -385.081706551137     IErMin= 1 ErrMin= 3.18D-05
 ErrMax= 3.18D-05  0.00D+00 EMaxC= 1.00D-01 BMatC= 1.18D-07 BMatP= 1.18D-07
 IDIUse=1 WtCom= 1.00D+00 WtEn= 0.00D+00
 Coeff-Com:  0.100D+01
 Coeff:      0.100D+01
 Gap=     0.169 Goal=   None    Shift=    0.000
 RMSDP=2.22D-06 MaxDP=8.88D-05 DE=-3.47D-05 OVMax= 8.26D-05

 Cycle   9  Pass 1  IDiag  1:
 RMSU=  5.63D-06    CP:  1.00D+00
 E= -385.081706638923     Delta-E=       -0.000000087786 Rises=F Damp=F
 DIIS: error= 1.34D-05 at cycle   2 NSaved=   2.
 NSaved= 2 IEnMin= 2 EnMin= -385.081706638923     IErMin= 2 ErrMin= 1.34D-05
 ErrMax= 1.34D-05  0.00D+00 EMaxC= 1.00D-01 BMatC= 4.51D-08 BMatP= 1.18D-07
 IDIUse=1 WtCom= 1.00D+00 WtEn= 0.00D+00
 Coeff-Com:  0.341D+00 0.659D+00
 Coeff:      0.341D+00 0.659D+00
 Gap=     0.169 Goal=   None    Shift=    0.000
 RMSDP=1.40D-06 MaxDP=6.39D-05 DE=-8.78D-08 OVMax= 7.56D-05

 Cycle  10  Pass 1  IDiag  1:
 RMSU=  1.39D-06    CP:  1.00D+00  9.72D-01
 E= -385.081706669464     Delta-E=       -0.000000030541 Rises=F Damp=F
 DIIS: error= 7.59D-06 at cycle   3 NSaved=   3.
 NSaved= 3 IEnMin= 3 EnMin= -385.081706669464     IErMin= 3 ErrMin= 7.59D-06
 ErrMax= 7.59D-06  0.00D+00 EMaxC= 1.00D-01 BMatC= 1.31D-08 BMatP= 4.51D-08
 IDIUse=1 WtCom= 1.00D+00 WtEn= 0.00D+00
 Coeff-Com: -0.151D-01 0.346D+00 0.669D+00
 Coeff:     -0.151D-01 0.346D+00 0.669D+00
 Gap=     0.169 Goal=   None    Shift=    0.000
 RMSDP=4.72D-07 MaxDP=1.92D-05 DE=-3.05D-08 OVMax= 2.15D-05

 Cycle  11  Pass 1  IDiag  1:
 RMSU=  1.76D-07    CP:  1.00D+00  1.00D+00  7.11D-01
 E= -385.081706680602     Delta-E=       -0.000000011137 Rises=F Damp=F
 DIIS: error= 1.84D-06 at cycle   4 NSaved=   4.
 NSaved= 4 IEnMin= 4 EnMin= -385.081706680602     IErMin= 4 ErrMin= 1.84D-06
 ErrMax= 1.84D-06  0.00D+00 EMaxC= 1.00D-01 BMatC= 4.79D-10 BMatP= 1.31D-08
 IDIUse=1 WtCom= 1.00D+00 WtEn= 0.00D+00
 Coeff-Com: -0.140D-01 0.194D+00 0.394D+00 0.426D+00
 Coeff:     -0.140D-01 0.194D+00 0.394D+00 0.426D+00
 Gap=     0.169 Goal=   None    Shift=    0.000
 RMSDP=1.15D-07 MaxDP=5.44D-06 DE=-1.11D-08 OVMax= 1.09D-05

 Cycle  12  Pass 1  IDiag  1:
 RMSU=  6.85D-08    CP:  1.00D+00  1.00D+00  6.91D-01  5.03D-01
 E= -385.081706681048     Delta-E=       -0.000000000446 Rises=F Damp=F
 DIIS: error= 4.51D-07 at cycle   5 NSaved=   5.
 NSaved= 5 IEnMin= 5 EnMin= -385.081706681048     IErMin= 5 ErrMin= 4.51D-07
 ErrMax= 4.51D-07  0.00D+00 EMaxC= 1.00D-01 BMatC= 2.72D-11 BMatP= 4.79D-10
 IDIUse=1 WtCom= 1.00D+00 WtEn= 0.00D+00
 Coeff-Com: -0.520D-02 0.623D-01 0.128D+00 0.227D+00 0.589D+00
 Coeff:     -0.520D-02 0.623D-01 0.128D+00 0.227D+00 0.589D+00
 Gap=     0.169 Goal=   None    Shift=    0.000
 RMSDP=3.05D-08 MaxDP=1.65D-06 DE=-4.46D-10 OVMax= 3.04D-06

 Cycle  13  Pass 1  IDiag  1:
 RMSU=  2.31D-08    CP:  1.00D+00  1.00D+00  6.92D-01  5.52D-01  7.43D-01
 E= -385.081706681072     Delta-E=       -0.000000000024 Rises=F Damp=F
 DIIS: error= 1.33D-07 at cycle   6 NSaved=   6.
 NSaved= 6 IEnMin= 6 EnMin= -385.081706681072     IErMin= 6 ErrMin= 1.33D-07
 ErrMax= 1.33D-07  0.00D+00 EMaxC= 1.00D-01 BMatC= 4.78D-12 BMatP= 2.72D-11
 IDIUse=1 WtCom= 1.00D+00 WtEn= 0.00D+00
 Coeff-Com: -0.127D-02 0.125D-01 0.259D-01 0.829D-01 0.353D+00 0.527D+00
 Coeff:     -0.127D-02 0.125D-01 0.259D-01 0.829D-01 0.353D+00 0.527D+00
 Gap=     0.169 Goal=   None    Shift=    0.000
 RMSDP=1.15D-08 MaxDP=5.02D-07 DE=-2.35D-11 OVMax= 1.22D-06

 Cycle  14  Pass 1  IDiag  1:
 RMSU=  5.99D-09    CP:  1.00D+00  1.00D+00  6.93D-01  5.58D-01  8.02D-01
                    CP:  6.16D-01
 E= -385.081706681076     Delta-E=       -0.000000000004 Rises=F Damp=F
 DIIS: error= 5.34D-08 at cycle   7 NSaved=   7.
 NSaved= 7 IEnMin= 7 EnMin= -385.081706681076     IErMin= 7 ErrMin= 5.34D-08
 ErrMax= 5.34D-08  0.00D+00 EMaxC= 1.00D-01 BMatC= 4.17D-13 BMatP= 4.78D-12
 IDIUse=1 WtCom= 1.00D+00 WtEn= 0.00D+00
 Coeff-Com: -0.347D-03 0.219D-02 0.476D-02 0.301D-01 0.159D+00 0.300D+00
 Coeff-Com:  0.504D+00
 Coeff:     -0.347D-03 0.219D-02 0.476D-02 0.301D-01 0.159D+00 0.300D+00
 Coeff:      0.504D+00
 Gap=     0.169 Goal=   None    Shift=    0.000
 RMSDP=4.32D-09 MaxDP=2.32D-07 DE=-4.32D-12 OVMax= 5.26D-07

 SCF Done:  E(RB3LYP) =  -385.081706681     A.U. after   14 cycles
            NFock= 14  Conv=0.43D-08     -V/T= 2.0101
 KE= 3.812200665692D+02 PE=-1.778741986611D+03 EE= 5.627789854359D+02
 Leave Link  502 at Tue Jun 08 17:54:51 2021, MaxMem=    33554432 cpu:       107.0
 (Enter C:\G09W\l801.exe)
 DoSCS=F DFT=T ScalE2(SS,OS)=  1.000000  1.000000
 ExpMin= 1.61D-01 ExpMax= 4.17D+03 ExpMxC= 6.27D+02 IAcc=3 IRadAn=         5 AccDes= 0.00D+00
 HarFok:  IExCor=  205 AccDes= 0.00D+00 IRadAn=         5 IDoV=-2 UseB2=F ITyADJ=14
 ICtDFT= 12500011 ScaDFX=  1.000000  1.000000  1.000000  1.000000
 Largest valence mixing into a core orbital is  5.22D-05
 Largest core mixing into a valence orbital is  1.26D-05
 Range of M.O.s used for correlation:    10   210
 NBasis=   210 NAE=    35 NBE=    35 NFC=     9 NFV=     0
 NROrb=    201 NOA=    26 NOB=    26 NVA=   175 NVB=   175
 Leave Link  801 at Tue Jun 08 17:54:51 2021, MaxMem=    33554432 cpu:         0.0
 (Enter C:\G09W\l914.exe)
 RHF ground state
 MDV=    33554432 DFT=T DoStab=F Mixed=T DoRPA=T DoScal=F NonHer=T
 Would need an additional           718100000 words for in-memory AO integral storage.
 Making orbital integer symmetry assigments:
    40 initial guesses have been made.
 Convergence on wavefunction:    0.001000000000000
 Davidson Disk Diagonalization:  ConvIn= 1.00D-03 SkipCon=T Conv= 1.00D-03.
 Max sub-space:   200 roots to seek:    40 dimension of matrix:         9100
 Iteration     1 Dimension    40 NMult     0 NNew     40
 CISAX will form    40 AO SS matrices at one time.
 NMat=    40 NSing=    40 JSym2X= 0.
 FoFJK:  IHMeth= 1 ICntrl=       0 DoSepK=F KAlg= 0 I1Cent=   0 FoldK=F
 IRaf=         0 NMat=  80 IRICut=     100 DoRegI=T DoRafI=T ISym2E= 0.
 FoFCou: FMM=F IPFlag=           0 FMFlag=      100000 FMFlg1=           0
         NFxFlg=           0 DoJE=F BraDBF=F KetDBF=F FulRan=T
         wScrn=  0.000000 ICntrl=       0 IOpCl=  0 I1Cent=           0 NGrid=           0
         NMat0=   80 NMatS0=     40 NMatT0=    0 NMatD0=   80 NMtDS0=    0 NMtDT0=    0
 Symmetry not used in FoFCou.
 New state      3 was old state      5
 New state      4 was old state      6
 New state      5 was old state      8
 New state      6 was old state      7
 New state      7 was old state      4
 New state      8 was old state      9
 New state      9 was old state     10
 New state     10 was old state     12
 Excitation Energies [eV] at current iteration:
 Root      1 :     5.554288861741280
 Root      2 :     7.166470028496658
 Root      3 :     7.247705626100579
 Root      4 :     7.638450302350273
 Root      5 :     7.738547548571487
 Root      6 :     7.915296820153953
 Root      7 :     8.164537385228357
 Root      8 :     8.241632587971290
 Root      9 :     8.326402507554313
 Root     10 :     8.431918703468412
 Root     11 :     8.435355756433609
 Root     12 :     8.508162349555860
 Root     13 :     8.656662330348892
 Root     14 :     8.836137729231657
 Root     15 :     8.856450202001096
 Root     16 :     8.938482348175525
 Root     17 :     8.938938604588305
 Root     18 :     8.999612505478346
 Root     19 :     9.114150620274655
 Root     20 :     9.433840007834593
 Root     21 :     9.596663207419175
 Root     22 :     9.603890818817911
 Root     23 :     9.735000514479401
 Root     24 :     9.839764839976990
 Root     25 :     9.995204581685986
 Root     26 :    10.018748833765870
 Root     27 :    10.092749050006380
 Root     28 :    10.208710091382510
 Root     29 :    10.258259322279630
 Root     30 :    10.506253278210140
 Root     31 :    10.691337951355020
 Root     32 :    10.729468365285980
 Root     33 :    10.795054672835740
 Root     34 :    10.819717941700560
 Root     35 :    10.979618428839230
 Root     36 :    10.999938886654280
 Root     37 :    11.063930173630250
 Root     38 :    11.506252568794190
 Root     39 :    11.908415787429400
 Root     40 :    11.910901921465010
 Iteration     2 Dimension    60 NMult    40 NNew     20
 CISAX will form    20 AO SS matrices at one time.
 NMat=    20 NSing=    20 JSym2X= 0.
 Root      1 not converged, maximum delta is    0.064473560839640
 Root      2 not converged, maximum delta is    0.093535269811155
 Root      3 not converged, maximum delta is    0.013630138929702
 Root      4 not converged, maximum delta is    0.018567398335981
 Root      5 not converged, maximum delta is    0.029906376079367
 New state      6 was old state      7
 Root      6 not converged, maximum delta is    0.152933992719626
 New state      7 was old state      6
 Root      7 not converged, maximum delta is    0.009669743216444
 Root      8 not converged, maximum delta is    0.036888461757180
 Root      9 not converged, maximum delta is    0.044279219928484
 Root     10 not converged, maximum delta is    0.062672098793965
 Excitation Energies [eV] at current iteration:
 Root      1 :     4.766093058743387   Change is   -0.788195802997893
 Root      2 :     6.800630085690358   Change is   -0.365839942806300
 Root      3 :     7.228612089632535   Change is   -0.019093536468043
 Root      4 :     7.615964330433171   Change is   -0.022485971917102
 Root      5 :     7.702765432742217   Change is   -0.035782115829270
 Root      6 :     7.801944970901419   Change is   -0.362592414326938
 Root      7 :     7.896447299668340   Change is   -0.018849520485613
 Root      8 :     8.207786858740912   Change is   -0.033845729230378
 Root      9 :     8.298102782818031   Change is   -0.028299724736283
 Root     10 :     8.349770863940661   Change is   -0.082147839527751
 Iteration     3 Dimension    80 NMult    60 NNew     20
 CISAX will form    20 AO SS matrices at one time.
 NMat=    20 NSing=    20 JSym2X= 0.
 Root      1 not converged, maximum delta is    0.007195094416131
 Root      2 not converged, maximum delta is    0.038748225896661
 Root      3 not converged, maximum delta is    0.001960378504137
 New state      4 was old state     10
 Root      4 not converged, maximum delta is    0.559899154545302
 New state      5 was old state      4
 Root      5 not converged, maximum delta is    0.002018112262194
 New state      6 was old state      5
 Root      6 not converged, maximum delta is    0.003808740956138
 New state      7 was old state      6
 Root      7 not converged, maximum delta is    0.008013199311044
 New state      8 was old state      7
 Root      8 not converged, maximum delta is    0.001925759583068
 New state      9 was old state      8
 Root      9 not converged, maximum delta is    0.003925018878056
 New state     10 was old state      9
 Root     10 not converged, maximum delta is    0.001718713117012
 Excitation Energies [eV] at current iteration:
 Root      1 :     4.740383943742700   Change is   -0.025709115000687
 Root      2 :     6.785540349534404   Change is   -0.015089736155953
 Root      3 :     7.228068965785555   Change is   -0.000543123846981
 Root      4 :     7.587954924203758   Change is   -0.761815939736903
 Root      5 :     7.615180664482524   Change is   -0.000783665950647
 Root      6 :     7.701195344705839   Change is   -0.001570088036378
 Root      7 :     7.788531710864429   Change is   -0.013413260036990
 Root      8 :     7.895818426535871   Change is   -0.000628873132469
 Root      9 :     8.206727410381648   Change is   -0.001059448359265
 Root     10 :     8.297252219384010   Change is   -0.000850563434020
 Iteration     4 Dimension   100 NMult    80 NNew     20
 CISAX will form    20 AO SS matrices at one time.
 NMat=    20 NSing=    20 JSym2X= 0.
 Root      1 has converged.
 Root      2 not converged, maximum delta is    0.004029015053724
 Root      3 has converged.
 Root      4 not converged, maximum delta is    0.018178165449177
 Root      5 has converged.
 Root      6 has converged.
 Root      7 not converged, maximum delta is    0.001838098956251
 Root      8 has converged.
 Root      9 has converged.
 Root     10 has converged.
 Excitation Energies [eV] at current iteration:
 Root      1 :     4.739766336196060   Change is   -0.000617607546641
 Root      2 :     6.783933828521471   Change is   -0.001606521012933
 Root      3 :     7.228040393507649   Change is   -0.000028572277906
 Root      4 :     7.527911142617603   Change is   -0.060043781586155
 Root      5 :     7.615114226620317   Change is   -0.000066437862207
 Root      6 :     7.701102131494658   Change is   -0.000093213211180
 Root      7 :     7.787002902716484   Change is   -0.001528808147945
 Root      8 :     7.895768965953717   Change is   -0.000049460582154
 Root      9 :     8.206643086013406   Change is   -0.000084324368241
 Root     10 :     8.297201513851286   Change is   -0.000050705532724
 Iteration     5 Dimension   106 NMult   100 NNew      6
 CISAX will form     6 AO SS matrices at one time.
 NMat=     6 NSing=     6 JSym2X= 0.
 Root      1 has converged.
 Root      2 has converged.
 Root      3 has converged.
 Root      4 not converged, maximum delta is    0.002357159512524
 Root      5 has converged.
 Root      6 has converged.
 Root      7 has converged.
 Root      8 has converged.
 Root      9 has converged.
 Root     10 has converged.
 Excitation Energies [eV] at current iteration:
 Root      1 :     4.739764995105533   Change is   -0.000001341090526
 Root      2 :     6.783851205393503   Change is   -0.000082623127968
 Root      3 :     7.228040385223276   Change is   -0.000000008284373
 Root      4 :     7.524800659652709   Change is   -0.003110482964893
 Root      5 :     7.615114225827997   Change is   -0.000000000792321
 Root      6 :     7.701102130495266   Change is   -0.000000000999393
 Root      7 :     7.786865007410116   Change is   -0.000137895306368
 Root      8 :     7.895768918565604   Change is   -0.000000047388113
 Root      9 :     8.206643011517842   Change is   -0.000000074495564
 Root     10 :     8.297201513648156   Change is   -0.000000000203131
 Iteration     6 Dimension   108 NMult   106 NNew      2
 CISAX will form     2 AO SS matrices at one time.
 NMat=     2 NSing=     2 JSym2X= 0.
 Root      1 has converged.
 Root      2 has converged.
 Root      3 has converged.
 Root      4 has converged.
 Root      5 has converged.
 Root      6 has converged.
 Root      7 has converged.
 Root      8 has converged.
 Root      9 has converged.
 Root     10 has converged.
 Excitation Energies [eV] at current iteration:
 Root      1 :     4.739764995104250   Change is   -0.000000000001283
 Root      2 :     6.783850562545338   Change is   -0.000000642848166
 Root      3 :     7.228040382933068   Change is   -0.000000002290207
 Root      4 :     7.524574423205274   Change is   -0.000226236447436
 Root      5 :     7.615114225318933   Change is   -0.000000000509064
 Root      6 :     7.701102130466070   Change is   -0.000000000029196
 Root      7 :     7.786865007397826   Change is   -0.000000000012290
 Root      8 :     7.895768906264352   Change is   -0.000000012301252
 Root      9 :     8.206642964756002   Change is   -0.000000046761840
 Root     10 :     8.297201513504117   Change is   -0.000000000144040
 Convergence achieved on expansion vectors.
 ***********************************************************************
 Excited states from <AA,BB:AA,BB> singles matrix:
 ***********************************************************************
 
 1PDM for each excited state written to RWF  633
 Ground to excited state transition densities written to RWF  633
 Ground to excited state transition electric dipole moments (Au):
       state          X           Y           Z        Dip. S.      Osc.
         1        -2.8413      0.0000      0.0000      8.0730      0.9375
         2         0.0000     -0.4467      0.0000      0.1995      0.0332
         3         0.0000     -0.0001      0.0252      0.0006      0.0001
         4         0.0000      0.0752      0.0000      0.0057      0.0010
         5         0.0001      0.0000      0.0000      0.0000      0.0000
         6        -0.0001      0.0000      0.0000      0.0000      0.0000
         7         0.0493      0.0000      0.0000      0.0024      0.0005
         8         0.0000     -0.0001      0.3271      0.1070      0.0207
         9         0.0000      0.0000     -0.1251      0.0156      0.0031
        10        -0.0001      0.0000      0.0001      0.0000      0.0000
 Ground to excited state transition velocity dipole moments (Au):
       state          X           Y           Z        Dip. S.      Osc.
         1         0.4723      0.0000      0.0000      0.2231      0.8539
         2         0.0000      0.1180      0.0000      0.0139      0.0373
         3         0.0000      0.0000     -0.0135      0.0002      0.0005
         4         0.0000     -0.0278     -0.0001      0.0008      0.0019
         5         0.0000      0.0000      0.0000      0.0000      0.0000
         6         0.0000      0.0000      0.0000      0.0000      0.0000
         7        -0.0194      0.0000      0.0000      0.0004      0.0009
         8         0.0000      0.0000     -0.0973      0.0095      0.0217
         9         0.0000      0.0000      0.0470      0.0022      0.0049
        10         0.0000      0.0000      0.0000      0.0000      0.0000
 Ground to excited state transition magnetic dipole moments (Au):
       state          X           Y           Z
         1         0.0000      0.0001      0.6704
         2         0.0001     -0.0001      0.0000
         3        -0.2587      0.0000      0.0001
         4        -0.0007      0.0002      0.0000
         5         0.0000     -0.3718     -0.0001
         6         0.0000     -0.1961      0.0007
         7         0.0000     -0.0002     -0.4524
         8        -0.2765      0.0000      0.0000
         9         0.5500     -0.0001     -0.0001
        10        -0.0004     -0.1861      0.0002
 Ground to excited state transition velocity quadrupole moments (Au):
       state          XX          YY          ZZ          XY          XZ          YZ
         1         0.0000      0.0000      0.0000     -0.0281      0.0000      0.0000
         2         1.1862      0.1463      0.0400      0.0000      0.0000      0.0001
         3         0.0008      0.0001      0.0000      0.0001      0.0000     -0.0670
         4        -2.1333     -0.3066     -0.0390      0.0000     -0.0001     -0.0006
         5        -0.0005     -0.0001      0.0000     -0.0002      0.3411      0.0000
         6        -0.0001      0.0000      0.0000      0.0004     -0.0146      0.0000
         7         0.0000      0.0000      0.0000     -0.2862      0.0000      0.0000
         8         0.0004      0.0000     -0.0001      0.0000      0.0000     -0.2865
         9         0.0009      0.0001      0.0001     -0.0001      0.0002      0.1823
        10         0.0000      0.0000      0.0000      0.0002      0.2359     -0.0001
 <0|del|b> * <b|rxdel|0> + <0|del|b> * <b|delr+rdel|0>
 Rotatory Strengths (R) in cgs (10**-40 erg-esu-cm/Gauss)
       state          XX          YY          ZZ    R(velocity)    E-M Angle
         1         0.0033      0.0277      0.0328      0.0212       90.00
         2        -0.0176      0.0000     -0.0034     -0.0070       90.00
         3        -0.0025     -0.0015     -0.0005     -0.0015       90.00
         4        -0.0116      0.0000     -0.0015     -0.0044       90.00
         5         0.0014      0.0000      0.0001      0.0005       90.00
         6         0.0016      0.0000      0.0019      0.0012       90.00
         7         0.0075      0.0011     -0.0003      0.0028       90.00
         8         0.0011     -0.0060      0.0000     -0.0016       90.00
         9        -0.0098     -0.0024      0.0008     -0.0038       90.00
        10         0.0045      0.0000     -0.0005      0.0013       90.00
 1/2[<0|r|b>*<b|rxdel|0> + (<0|rxdel|b>*<b|r|0>)*]
 Rotatory Strengths (R) in cgs (10**-40 erg-esu-cm/Gauss)
       state          XX          YY          ZZ     R(length)
         1         0.0596      0.0000      0.0054      0.0216
         2         0.0000     -0.0198      0.0000     -0.0066
         3        -0.0023      0.0000     -0.0016     -0.0013
         4         0.0000     -0.0098      0.0000     -0.0033
         5         0.0000     -0.0002      0.0000     -0.0001
         6         0.0000      0.0029      0.0000      0.0010
         7        -0.0006      0.0000      0.0066      0.0020
         8        -0.0035      0.0000     -0.0021     -0.0019
         9         0.0027      0.0000     -0.0111     -0.0028
        10         0.0000      0.0035      0.0000      0.0012
  1/2[<0|del|b>*<b|r|0> + (<0|r|b>*<b|del|0>)*] (Au)
       state          X           Y           Z        Dip. S.   Osc.(frdel)
         1        -1.3420      0.0000      0.0000      1.3420      0.8947
         2         0.0000     -0.0527      0.0000      0.0527      0.0351
         3         0.0000      0.0000     -0.0003      0.0003      0.0002
         4         0.0000     -0.0021      0.0000      0.0021      0.0014
         5         0.0000      0.0000      0.0000      0.0000      0.0000
         6         0.0000      0.0000      0.0000      0.0000      0.0000
         7        -0.0010      0.0000      0.0000      0.0010      0.0006
         8         0.0000      0.0000     -0.0318      0.0318      0.0212
         9         0.0000      0.0000     -0.0059      0.0059      0.0039
        10         0.0000      0.0000      0.0000      0.0000      0.0000

 Excitation energies and oscillator strengths:
 
 Excited state symmetry could not be determined.
 Excited State   1:      Singlet-?Sym    4.7398 eV  261.58 nm  f=0.9375  <S**2>=0.000
      35 -> 36         0.70883
      35 <- 36        -0.10581
 This state for optimization and/or second-order correction.
 Total Energy, E(TD-HF/TD-KS) =  -384.907523515    
 Copying the excited state density for this state as the 1-particle RhoCI density.
 
 Excited state symmetry could not be determined.
 Excited State   2:      Singlet-?Sym    6.7839 eV  182.76 nm  f=0.0332  <S**2>=0.000
      34 -> 36         0.64546
      35 -> 37         0.27950
 
 Excited state symmetry could not be determined.
 Excited State   3:      Singlet-?Sym    7.2280 eV  171.53 nm  f=0.0001  <S**2>=0.000
      35 -> 38         0.70288
 
 Excited state symmetry could not be determined.
 Excited State   4:      Singlet-?Sym    7.5246 eV  164.77 nm  f=0.0010  <S**2>=0.000
      34 -> 36        -0.27502
      35 -> 37         0.64106
 
 Excited state symmetry could not be determined.
 Excited State   5:      Singlet-?Sym    7.6151 eV  162.81 nm  f=0.0000  <S**2>=0.000
      35 -> 39         0.70203
 
 Excited state symmetry could not be determined.
 Excited State   6:      Singlet-?Sym    7.7011 eV  161.00 nm  f=0.0000  <S**2>=0.000
      30 -> 36         0.27112
      32 -> 36         0.64816
 
 Excited state symmetry could not be determined.
 Excited State   7:      Singlet-?Sym    7.7869 eV  159.22 nm  f=0.0005  <S**2>=0.000
      33 -> 36         0.69222
      34 -> 37        -0.12395
 
 Excited state symmetry could not be determined.
 Excited State   8:      Singlet-?Sym    7.8958 eV  157.03 nm  f=0.0207  <S**2>=0.000
      35 -> 40         0.69896
 
 Excited state symmetry could not be determined.
 Excited State   9:      Singlet-?Sym    8.2066 eV  151.08 nm  f=0.0031  <S**2>=0.000
      29 -> 36        -0.11331
      31 -> 36         0.68992
 
 Excited state symmetry could not be determined.
 Excited State  10:      Singlet-?Sym    8.2972 eV  149.43 nm  f=0.0000  <S**2>=0.000
      30 -> 36         0.64631
      32 -> 36        -0.27475
 SavETr:  write IOETrn=   770 NScale= 10 NData=  16 NLR=1 NState=   10 LETran=     190.
 Leave Link  914 at Tue Jun 08 18:06:15 2021, MaxMem=    33554432 cpu:       683.0
 (Enter C:\G09W\l601.exe)
 Copying SCF densities to generalized density rwf, IOpCl= 0 IROHF=0.

 **********************************************************************

            Population analysis using the SCF density.

 **********************************************************************

 Alpha  occ. eigenvalues --  -14.54694 -14.54694 -10.40701 -10.40701 -10.36472
 Alpha  occ. eigenvalues --  -10.36472 -10.36434 -10.36434 -10.34093  -1.12852
 Alpha  occ. eigenvalues --   -1.12436  -0.95355  -0.88521  -0.87958  -0.87779
 Alpha  occ. eigenvalues --   -0.82659  -0.73477  -0.72144  -0.67763  -0.66352
 Alpha  occ. eigenvalues --   -0.63082  -0.62343  -0.61931  -0.61387  -0.55804
 Alpha  occ. eigenvalues --   -0.55545  -0.55323  -0.55281  -0.54895  -0.53972
 Alpha  occ. eigenvalues --   -0.53255  -0.52524  -0.50205  -0.45868  -0.36611
 Alpha virt. eigenvalues --   -0.19718  -0.08131  -0.06115  -0.05190  -0.04242
 Alpha virt. eigenvalues --   -0.02046  -0.00943  -0.00383  -0.00207   0.01208
 Alpha virt. eigenvalues --    0.01346   0.01496   0.01958   0.03192   0.03708
 Alpha virt. eigenvalues --    0.04950   0.06031   0.06424   0.06790   0.08613
 Alpha virt. eigenvalues --    0.08808   0.16385   0.18976   0.21115   0.28946
 Alpha virt. eigenvalues --    0.31528   0.32645   0.35671   0.36262   0.36382
 Alpha virt. eigenvalues --    0.38780   0.38967   0.41939   0.42262   0.43213
 Alpha virt. eigenvalues --    0.43595   0.44607   0.50173   0.52069   0.52397
 Alpha virt. eigenvalues --    0.53874   0.55780   0.56540   0.60473   0.61330
 Alpha virt. eigenvalues --    0.64546   0.66170   0.67561   0.68331   0.68414
 Alpha virt. eigenvalues --    0.68883   0.69893   0.70291   0.70395   0.74604
 Alpha virt. eigenvalues --    0.74637   0.75155   0.76028   0.76778   0.77744
 Alpha virt. eigenvalues --    0.78802   0.80459   0.81446   0.84526   0.86783
 Alpha virt. eigenvalues --    0.91291   0.92739   0.95564   1.10421   1.11500
 Alpha virt. eigenvalues --    1.13300   1.13959   1.15385   1.15627   1.17341
 Alpha virt. eigenvalues --    1.19430   1.20473   1.22510   1.23584   1.30002
 Alpha virt. eigenvalues --    1.36701   1.36946   1.48991   1.51581   1.56359
 Alpha virt. eigenvalues --    1.56444   1.65916   1.66242   1.66247   1.68825
 Alpha virt. eigenvalues --    1.70254   1.75000   1.76639   1.77056   1.78274
 Alpha virt. eigenvalues --    1.78958   1.82381   1.85750   1.87777   1.88462
 Alpha virt. eigenvalues --    1.88552   1.88645   1.88897   1.91269   1.91876
 Alpha virt. eigenvalues --    1.92606   1.92769   1.94342   1.96416   1.97381
 Alpha virt. eigenvalues --    1.97707   1.99316   2.00066   2.01792   2.10703
 Alpha virt. eigenvalues --    2.14034   2.17849   2.19177   2.19628   2.20431
 Alpha virt. eigenvalues --    2.21599   2.27508   2.29388   2.31530   2.32366
 Alpha virt. eigenvalues --    2.36789   2.38406   2.40356   2.44219   2.44228
 Alpha virt. eigenvalues --    2.46192   2.48128   2.48710   2.50574   2.51188
 Alpha virt. eigenvalues --    2.54601   2.55074   2.58795   2.62743   2.66923
 Alpha virt. eigenvalues --    2.67389   2.69547   2.69996   2.70080   2.70715
 Alpha virt. eigenvalues --    2.73978   2.74118   2.91412   2.92274   2.95851
 Alpha virt. eigenvalues --    2.96378   3.03611   3.04452   3.07974   3.08165
 Alpha virt. eigenvalues --    3.22187   3.26773   3.26773   3.26902   3.27165
 Alpha virt. eigenvalues --    3.27232   3.29532   3.30741   3.32892   3.44773
 Alpha virt. eigenvalues --    3.47776   3.83774   3.94808   3.99011   4.16681
 Alpha virt. eigenvalues --    4.29248   4.31553   4.33009   4.39955   4.52216
     Molecular Orbital Coefficients:
                           1         2         3         4         5
                           O         O         O         O         O
     Eigenvalues --   -14.54694 -14.54694 -10.40701 -10.40701 -10.36472
   1 1   C  1S          0.00000   0.00000   0.00377   0.00406   0.00001
   2        2S          0.00007   0.00003  -0.00023  -0.00025   0.00018
   3        2PX         0.00000   0.00000  -0.00028   0.00026   0.00016
   4        2PY         0.00002   0.00001   0.00021   0.00023  -0.00007
   5        2PZ         0.00000   0.00000   0.00000   0.00000   0.00000
   6        3S          0.00007   0.00004   0.00513   0.00553  -0.00316
   7        3PX         0.00024  -0.00050   0.00098  -0.00091  -0.00112
   8        3PY        -0.00023  -0.00011  -0.00119  -0.00129   0.00148
   9        3PZ         0.00000   0.00000   0.00000   0.00000   0.00000
  10        4XX        -0.00012  -0.00006  -0.00039  -0.00042  -0.00012
  11        4YY         0.00001   0.00001  -0.00039  -0.00042   0.00000
  12        4ZZ        -0.00001   0.00000  -0.00019  -0.00020   0.00001
  13        4XY         0.00000   0.00000   0.00014  -0.00013   0.00005
  14        4XZ         0.00000   0.00000   0.00000   0.00000   0.00000
  15        4YZ         0.00000   0.00000   0.00000   0.00000   0.00000
  16 2   C  1S          0.00002   0.00005   0.99208   0.03752  -0.00001
  17        2S          0.00009   0.00023   0.04893   0.00171  -0.00020
  18        2PX         0.00010   0.00027   0.00070   0.00010  -0.00002
  19        2PY         0.00004   0.00009   0.00035   0.00007   0.00001
  20        2PZ         0.00000   0.00000   0.00000   0.00000   0.00000
  21        3S         -0.00054  -0.00015  -0.00945  -0.00224   0.00249
  22        3PX        -0.00004  -0.00009   0.00390  -0.00137  -0.00142
  23        3PY        -0.00015   0.00023   0.00020  -0.00134   0.00089
  24        3PZ         0.00000   0.00000   0.00000   0.00000   0.00000
  25        4XX         0.00000   0.00006  -0.00853  -0.00033   0.00006
  26        4YY         0.00004   0.00009  -0.00912  -0.00035   0.00000
  27        4ZZ        -0.00001  -0.00001  -0.00967  -0.00042  -0.00007
  28        4XY        -0.00002   0.00000   0.00018  -0.00005  -0.00004
  29        4XZ         0.00000   0.00000   0.00000   0.00000   0.00000
  30        4YZ         0.00000   0.00000   0.00000   0.00000   0.00000
  31 3   H  1S          0.00002   0.00001   0.00002   0.00002  -0.00005
  32        2S          0.00013   0.00006  -0.00021  -0.00022  -0.00025
  33        3PX        -0.00001   0.00003   0.00000   0.00000   0.00001
  34        3PY         0.00000   0.00000  -0.00008  -0.00008   0.00000
  35        3PZ         0.00000   0.00000   0.00000   0.00000   0.00000
  36 4   H  1S         -0.00002  -0.00004  -0.00037  -0.00013  -0.00001
  37        2S         -0.00002   0.00010   0.00206  -0.00029   0.00008
  38        3PX        -0.00002  -0.00006  -0.00018   0.00005   0.00005
  39        3PY        -0.00002  -0.00006  -0.00016   0.00000  -0.00001
  40        3PZ         0.00000   0.00000   0.00000   0.00000   0.00000
  41 5   C  1S          0.00005  -0.00002  -0.03758   0.99207   0.00003
  42        2S          0.00024  -0.00007  -0.00200   0.04892  -0.00029
  43        2PX        -0.00027   0.00009  -0.00004  -0.00071  -0.00003
  44        2PY         0.00010  -0.00003   0.00004   0.00035  -0.00014
  45        2PZ         0.00000   0.00000   0.00000   0.00000   0.00000
  46        3S         -0.00046  -0.00033  -0.00152  -0.00960   0.00095
  47        3PX         0.00010  -0.00002   0.00166  -0.00379   0.00074
  48        3PY         0.00009  -0.00026  -0.00136   0.00010   0.00117
  49        3PZ         0.00000   0.00000   0.00000   0.00000   0.00000
  50        4XX         0.00005  -0.00003   0.00031  -0.00853   0.00015
  51        4YY         0.00010  -0.00003   0.00034  -0.00912   0.00001
  52        4ZZ        -0.00001   0.00000   0.00032  -0.00967  -0.00012
  53        4XY         0.00001   0.00002   0.00006  -0.00017  -0.00005
  54        4XZ         0.00000   0.00000   0.00000   0.00000   0.00000
  55        4YZ         0.00000   0.00000   0.00000   0.00000   0.00000
  56 6   H  1S         -0.00004   0.00001  -0.00010  -0.00038   0.00010
  57        2S          0.00006  -0.00008  -0.00044   0.00203   0.00045
  58        3PX         0.00005  -0.00002  -0.00007   0.00018  -0.00003
  59        3PY        -0.00007   0.00002   0.00001  -0.00016   0.00001
  60        3PZ         0.00000   0.00000   0.00000   0.00000   0.00000
  61 7   N  1S          0.93686  -0.32811  -0.00004  -0.00018  -0.00013
  62        2S          0.03285  -0.01153  -0.00022   0.00016  -0.00007
  63        2PX         0.00012  -0.00004  -0.00003  -0.00016   0.00004
  64        2PY        -0.00003   0.00001   0.00001  -0.00002  -0.00005
  65        2PZ         0.00000   0.00000   0.00000   0.00000   0.00000
  66        3S          0.00380  -0.00108   0.00208  -0.00124   0.00263
  67        3PX        -0.00006   0.00017   0.00138  -0.00240  -0.00030
  68        3PY        -0.00006   0.00002  -0.00042   0.00185   0.00026
  69        3PZ         0.00000   0.00000   0.00000   0.00000   0.00000
  70        4XX        -0.00794   0.00278   0.00002  -0.00065  -0.00021
  71        4YY        -0.00800   0.00279  -0.00011  -0.00024  -0.00068
  72        4ZZ        -0.00788   0.00275  -0.00012   0.00015  -0.00006
  73        4XY        -0.00004   0.00001  -0.00005   0.00033   0.00014
  74        4XZ         0.00000   0.00000   0.00000   0.00000   0.00000
  75        4YZ         0.00000   0.00000   0.00000   0.00000   0.00000
  76 8   N  1S          0.32810   0.93686  -0.00017  -0.00006   0.00001
  77        2S          0.01149   0.03287   0.00018  -0.00020   0.00004
  78        2PX        -0.00004  -0.00012   0.00016   0.00004  -0.00001
  79        2PY        -0.00001  -0.00003  -0.00002   0.00000   0.00004
  80        2PZ         0.00000   0.00000   0.00000   0.00000   0.00000
  81        3S          0.00153   0.00365  -0.00139   0.00198  -0.00016
  82        3PX        -0.00009   0.00015   0.00250  -0.00119   0.00020
  83        3PY        -0.00002  -0.00006   0.00187  -0.00028  -0.00042
  84        3PZ         0.00000   0.00000   0.00000   0.00000   0.00000
  85        4XX        -0.00278  -0.00794  -0.00065  -0.00003  -0.00001
  86        4YY        -0.00281  -0.00799  -0.00023  -0.00013   0.00000
  87        4ZZ        -0.00277  -0.00787   0.00016  -0.00011   0.00002
  88        4XY         0.00002   0.00004  -0.00033   0.00002   0.00000
  89        4XZ         0.00000   0.00000   0.00000   0.00000   0.00000
  90        4YZ         0.00000   0.00000   0.00000   0.00000   0.00000
  91 9   C  1S          0.00000   0.00000  -0.00007  -0.00002  -0.00196
  92        2S          0.00001   0.00002  -0.00016  -0.00004  -0.00014
  93        2PX        -0.00008  -0.00023  -0.00004   0.00001   0.00004
  94        2PY         0.00006   0.00016   0.00002   0.00001  -0.00001
  95        2PZ         0.00000   0.00000   0.00000   0.00000   0.00000
  96        3S         -0.00009  -0.00029   0.00014   0.00028   0.00001
  97        3PX         0.00006   0.00018  -0.00052  -0.00008  -0.00010
  98        3PY         0.00000  -0.00008  -0.00107   0.00019   0.00000
  99        3PZ         0.00000   0.00000   0.00000   0.00000   0.00000
 100        4XX         0.00006   0.00017   0.00022  -0.00002   0.00000
 101        4YY         0.00003   0.00009  -0.00006   0.00001   0.00000
 102        4ZZ         0.00001   0.00002  -0.00003  -0.00002  -0.00002
 103        4XY        -0.00004  -0.00012   0.00003  -0.00002   0.00000
 104        4XZ         0.00000   0.00000   0.00000   0.00000   0.00000
 105        4YZ         0.00000   0.00000   0.00000   0.00000   0.00000
 106 10  H  1S         -0.00001  -0.00002  -0.00006  -0.00001  -0.00002
 107        2S          0.00001  -0.00001  -0.00096   0.00011   0.00008
 108        3PX         0.00001   0.00003   0.00002   0.00000  -0.00001
 109        3PY        -0.00001  -0.00004  -0.00003   0.00000   0.00001
 110        3PZ         0.00000   0.00000   0.00000   0.00000   0.00000
 111 11  H  1S         -0.00001  -0.00001   0.00002  -0.00001   0.00001
 112        2S         -0.00003  -0.00009   0.00021  -0.00003   0.00001
 113        3PX         0.00002   0.00005   0.00004   0.00000   0.00001
 114        3PY        -0.00001  -0.00002   0.00004  -0.00001   0.00000
 115        3PZ        -0.00001  -0.00002   0.00003   0.00000   0.00001
 116 12  H  1S         -0.00001  -0.00001   0.00002  -0.00001   0.00001
 117        2S         -0.00003  -0.00009   0.00021  -0.00003   0.00001
 118        3PX         0.00002   0.00005   0.00004   0.00000   0.00001
 119        3PY        -0.00001  -0.00002   0.00004  -0.00001   0.00000
 120        3PZ         0.00001   0.00002  -0.00003   0.00000  -0.00001
 121 13  C  1S          0.00000   0.00000  -0.00008  -0.00004   0.03275
 122        2S          0.00001   0.00002  -0.00012  -0.00008   0.00162
 123        2PX        -0.00001  -0.00003   0.00004   0.00006  -0.00001
 124        2PY        -0.00010  -0.00029   0.00011   0.00002  -0.00006
 125        2PZ         0.00000   0.00000   0.00000   0.00000   0.00000
 126        3S         -0.00010  -0.00018  -0.00118   0.00022  -0.00015
 127        3PX         0.00001  -0.00015  -0.00097  -0.00020  -0.00007
 128        3PY         0.00006   0.00014   0.00013  -0.00016  -0.00008
 129        3PZ         0.00000   0.00000   0.00000   0.00000   0.00000
 130        4XX         0.00001   0.00002   0.00000  -0.00003  -0.00030
 131        4YY         0.00008   0.00023   0.00005   0.00000  -0.00028
 132        4ZZ         0.00001   0.00002  -0.00004  -0.00004  -0.00029
 133        4XY         0.00001   0.00004   0.00016  -0.00002   0.00001
 134        4XZ         0.00000   0.00000   0.00000   0.00000   0.00000
 135        4YZ         0.00000   0.00000   0.00000   0.00000   0.00000
 136 14  H  1S          0.00000  -0.00003  -0.00003  -0.00003  -0.00002
 137        2S         -0.00003  -0.00011   0.00007   0.00003   0.00004
 138        3PX         0.00000   0.00000   0.00007   0.00001   0.00000
 139        3PY         0.00002   0.00005  -0.00001   0.00000   0.00000
 140        3PZ         0.00001   0.00002  -0.00001  -0.00001   0.00001
 141 15  H  1S         -0.00001  -0.00001   0.00011   0.00002  -0.00001
 142        2S         -0.00001   0.00007   0.00071   0.00011   0.00008
 143        3PX         0.00001   0.00002  -0.00002  -0.00002   0.00000
 144        3PY         0.00001   0.00004   0.00002   0.00000   0.00000
 145        3PZ         0.00000   0.00000   0.00000   0.00000   0.00000
 146 16  H  1S          0.00000  -0.00003  -0.00003  -0.00003  -0.00002
 147        2S         -0.00003  -0.00011   0.00007   0.00003   0.00004
 148        3PX         0.00000   0.00000   0.00007   0.00001   0.00000
 149        3PY         0.00002   0.00005  -0.00001   0.00000   0.00000
 150        3PZ        -0.00001  -0.00002   0.00001   0.00001  -0.00001
 151 17  C  1S          0.00000   0.00000  -0.00003  -0.00009   0.99232
 152        2S          0.00002   0.00000  -0.00007  -0.00012   0.04954
 153        2PX         0.00003  -0.00001  -0.00005  -0.00004   0.00021
 154        2PY        -0.00028   0.00010   0.00001   0.00011  -0.00070
 155        2PZ         0.00000   0.00000   0.00000   0.00000   0.00000
 156        3S         -0.00020   0.00004   0.00031  -0.00116  -0.01490
 157        3PX         0.00011  -0.00010   0.00013   0.00098  -0.00064
 158        3PY         0.00015  -0.00004  -0.00017   0.00011   0.00061
 159        3PZ         0.00000   0.00000   0.00000   0.00000   0.00000
 160        4XX         0.00002   0.00000  -0.00003   0.00000  -0.00893
 161        4YY         0.00023  -0.00008  -0.00001   0.00005  -0.00897
 162        4ZZ         0.00002  -0.00001  -0.00004  -0.00004  -0.00896
 163        4XY        -0.00004   0.00002   0.00003  -0.00016  -0.00001
 164        4XZ         0.00000   0.00000   0.00000   0.00000   0.00000
 165        4YZ         0.00000   0.00000   0.00000   0.00000   0.00000
 166 18  H  1S         -0.00002   0.00002  -0.00003  -0.00004  -0.00008
 167        2S         -0.00010   0.00004   0.00002   0.00007   0.00266
 168        3PX         0.00000   0.00000   0.00000  -0.00007   0.00009
 169        3PY         0.00005  -0.00002   0.00000  -0.00001   0.00001
 170        3PZ         0.00002  -0.00001   0.00000  -0.00001   0.00011
 171 19  H  1S         -0.00002   0.00002  -0.00003  -0.00004  -0.00008
 172        2S         -0.00010   0.00004   0.00002   0.00007   0.00266
 173        3PX         0.00000   0.00000   0.00000  -0.00007   0.00009
 174        3PY         0.00005  -0.00002   0.00000  -0.00001   0.00001
 175        3PZ        -0.00002   0.00001   0.00000   0.00001  -0.00011
 176 20  H  1S         -0.00002   0.00000   0.00002   0.00011  -0.00015
 177        2S          0.00005  -0.00005   0.00005   0.00072   0.00209
 178        3PX        -0.00002   0.00001   0.00001   0.00002  -0.00016
 179        3PY         0.00004  -0.00002  -0.00001   0.00002   0.00003
 180        3PZ         0.00000   0.00000   0.00000   0.00000   0.00000
 181 21  C  1S          0.00000   0.00000  -0.00001  -0.00007  -0.01141
 182        2S          0.00002  -0.00001  -0.00002  -0.00016  -0.00081
 183        2PX         0.00023  -0.00008  -0.00001   0.00004  -0.00008
 184        2PY         0.00016  -0.00005   0.00001   0.00002  -0.00014
 185        2PZ         0.00000   0.00000   0.00000   0.00000   0.00000
 186        3S         -0.00029   0.00011   0.00027   0.00016   0.00041
 187        3PX        -0.00018   0.00006   0.00004   0.00053   0.00002
 188        3PY        -0.00007   0.00005   0.00027  -0.00105   0.00067
 189        3PZ         0.00000   0.00000   0.00000   0.00000   0.00000
 190        4XX         0.00017  -0.00006  -0.00003   0.00021   0.00003
 191        4YY         0.00009  -0.00003   0.00002  -0.00006   0.00008
 192        4ZZ         0.00002  -0.00001  -0.00002  -0.00004  -0.00003
 193        4XY         0.00012  -0.00004   0.00002  -0.00003   0.00005
 194        4XZ         0.00000   0.00000   0.00000   0.00000   0.00000
 195        4YZ         0.00000   0.00000   0.00000   0.00000   0.00000
 196 22  H  1S         -0.00002   0.00000  -0.00001   0.00002  -0.00005
 197        2S         -0.00009   0.00003  -0.00004   0.00020  -0.00007
 198        3PX        -0.00005   0.00002   0.00001  -0.00004   0.00001
 199        3PY        -0.00002   0.00001  -0.00001   0.00004  -0.00006
 200        3PZ        -0.00002   0.00001   0.00000   0.00003   0.00002
 201 23  H  1S         -0.00002   0.00001  -0.00001  -0.00006   0.00004
 202        2S          0.00000   0.00001   0.00018  -0.00095   0.00034
 203        3PX        -0.00003   0.00001   0.00000  -0.00002  -0.00002
 204        3PY        -0.00004   0.00001   0.00001  -0.00003   0.00002
 205        3PZ         0.00000   0.00000   0.00000   0.00000   0.00000
 206 24  H  1S         -0.00002   0.00000  -0.00001   0.00002  -0.00005
 207        2S         -0.00009   0.00003  -0.00004   0.00020  -0.00007
 208        3PX        -0.00005   0.00002   0.00001  -0.00004   0.00001
 209        3PY        -0.00002   0.00001  -0.00001   0.00004  -0.00006
 210        3PZ         0.00002  -0.00001   0.00000  -0.00003  -0.00002
                           6         7         8         9        10
                           O         O         O         O         O
     Eigenvalues --   -10.36472 -10.36434 -10.36434 -10.34093  -1.12852
   1 1   C  1S          0.00001  -0.00002  -0.00003   0.99276  -0.03688
   2        2S          0.00017  -0.00014  -0.00020   0.04986   0.06770
   3        2PX        -0.00017  -0.00006   0.00004   0.00000  -0.00002
   4        2PY        -0.00007   0.00001   0.00001  -0.00039  -0.01635
   5        2PZ         0.00000   0.00000   0.00000   0.00000   0.00000
   6        3S         -0.00296   0.00223   0.00325  -0.01787   0.05149
   7        3PX         0.00120  -0.00188   0.00129   0.00000  -0.00002
   8        3PY         0.00138  -0.00089  -0.00129   0.00338   0.00326
   9        3PZ         0.00000   0.00000   0.00000   0.00000   0.00000
  10        4XX        -0.00011   0.00005   0.00007  -0.00917   0.00672
  11        4YY         0.00000  -0.00001  -0.00002  -0.00912  -0.00184
  12        4ZZ         0.00001  -0.00004  -0.00006  -0.00957  -0.00472
  13        4XY        -0.00005   0.00005  -0.00003   0.00000   0.00000
  14        4XZ         0.00000   0.00000   0.00000   0.00000   0.00000
  15        4YZ         0.00000   0.00000   0.00000   0.00000   0.00000
  16 2   C  1S          0.00003  -0.00001   0.00006  -0.00433  -0.07227
  17        2S         -0.00028   0.00000  -0.00009  -0.00067   0.14472
  18        2PX         0.00003   0.00006  -0.00010   0.00032   0.06714
  19        2PY        -0.00015  -0.00004   0.00014  -0.00019   0.03760
  20        2PZ         0.00000   0.00000   0.00000   0.00000   0.00000
  21        3S          0.00079  -0.00029  -0.00113   0.00660   0.04069
  22        3PX        -0.00065  -0.00098   0.00289  -0.00274  -0.00713
  23        3PY         0.00112   0.00063  -0.00193   0.00127  -0.01135
  24        3PZ         0.00000   0.00000   0.00000   0.00000   0.00000
  25        4XX         0.00015  -0.00008   0.00007  -0.00037   0.00797
  26        4YY         0.00001  -0.00002   0.00007  -0.00035  -0.00451
  27        4ZZ        -0.00012  -0.00001  -0.00006  -0.00011  -0.00962
  28        4XY         0.00005  -0.00004   0.00008   0.00014   0.00596
  29        4XZ         0.00000   0.00000   0.00000   0.00000   0.00000
  30        4YZ         0.00000   0.00000   0.00000   0.00000   0.00000
  31 3   H  1S         -0.00005  -0.00002  -0.00003  -0.00043   0.01491
  32        2S         -0.00024   0.00029   0.00043   0.00126  -0.00054
  33        3PX        -0.00002   0.00004  -0.00003   0.00000   0.00000
  34        3PY         0.00000  -0.00001  -0.00002   0.00019  -0.00192
  35        3PZ         0.00000   0.00000   0.00000   0.00000   0.00000
  36 4   H  1S          0.00010   0.00002  -0.00018  -0.00006   0.02752
  37        2S          0.00045   0.00056  -0.00090  -0.00024  -0.00098
  38        3PX         0.00002   0.00004  -0.00012   0.00004   0.00101
  39        3PY         0.00001   0.00003  -0.00004   0.00008   0.00375
  40        3PZ         0.00000   0.00000   0.00000   0.00000   0.00000
  41 5   C  1S         -0.00002   0.00006   0.00001  -0.00433  -0.07232
  42        2S         -0.00018  -0.00008  -0.00003  -0.00067   0.14482
  43        2PX         0.00002   0.00012  -0.00002  -0.00032  -0.06720
  44        2PY         0.00002   0.00014   0.00001  -0.00019   0.03763
  45        2PZ         0.00000   0.00000   0.00000   0.00000   0.00000
  46        3S          0.00243  -0.00095  -0.00068   0.00660   0.04069
  47        3PX         0.00137  -0.00305  -0.00012   0.00274   0.00715
  48        3PY         0.00081  -0.00203  -0.00011   0.00127  -0.01138
  49        3PZ         0.00000   0.00000   0.00000   0.00000   0.00000
  50        4XX         0.00005   0.00009  -0.00005  -0.00037   0.00798
  51        4YY         0.00000   0.00007   0.00001  -0.00035  -0.00451
  52        4ZZ        -0.00007  -0.00005  -0.00003  -0.00011  -0.00963
  53        4XY         0.00004  -0.00009   0.00001  -0.00014  -0.00596
  54        4XZ         0.00000   0.00000   0.00000   0.00000   0.00000
  55        4YZ         0.00000   0.00000   0.00000   0.00000   0.00000
  56 6   H  1S         -0.00002  -0.00018  -0.00005  -0.00006   0.02754
  57        2S          0.00005  -0.00104   0.00020  -0.00024  -0.00099
  58        3PX        -0.00005   0.00013   0.00001  -0.00004  -0.00101
  59        3PY        -0.00001  -0.00005   0.00001   0.00008   0.00375
  60        3PZ         0.00000   0.00000   0.00000   0.00000   0.00000
  61 7   N  1S          0.00001  -0.00011  -0.00003   0.00003  -0.12737
  62        2S          0.00004   0.00001  -0.00005   0.00006   0.26378
  63        2PX         0.00001   0.00006  -0.00001   0.00004   0.02990
  64        2PY         0.00004  -0.00003   0.00000   0.00001  -0.01067
  65        2PZ         0.00000   0.00000   0.00000   0.00000  -0.00001
  66        3S         -0.00033   0.00159   0.00065  -0.00074   0.27066
  67        3PX        -0.00018  -0.00062   0.00028  -0.00036   0.00991
  68        3PY        -0.00044   0.00089  -0.00009  -0.00040  -0.00173
  69        3PZ         0.00000   0.00000   0.00000   0.00000   0.00000
  70        4XX         0.00001  -0.00051  -0.00008   0.00013   0.00304
  71        4YY         0.00004  -0.00032  -0.00009   0.00009   0.00072
  72        4ZZ         0.00002  -0.00003  -0.00005   0.00005  -0.01246
  73        4XY        -0.00001  -0.00027  -0.00008  -0.00001  -0.00099
  74        4XZ         0.00000   0.00000   0.00000   0.00000   0.00000
  75        4YZ         0.00000   0.00000   0.00000   0.00000   0.00000
  76 8   N  1S         -0.00013   0.00001  -0.00012   0.00003  -0.12727
  77        2S         -0.00007  -0.00005  -0.00001   0.00006   0.26358
  78        2PX        -0.00004   0.00003  -0.00006  -0.00004  -0.02987
  79        2PY        -0.00005   0.00001  -0.00003   0.00001  -0.01066
  80        2PZ         0.00000   0.00000   0.00000   0.00000   0.00001
  81        3S          0.00264   0.00004   0.00171  -0.00074   0.27042
  82        3PX         0.00029  -0.00048   0.00048   0.00036  -0.00989
  83        3PY         0.00029  -0.00041   0.00080  -0.00040  -0.00172
  84        3PZ         0.00000   0.00000   0.00000   0.00000   0.00000
  85        4XX        -0.00021   0.00011  -0.00051   0.00013   0.00303
  86        4YY        -0.00068   0.00003  -0.00034   0.00009   0.00072
  87        4ZZ        -0.00007  -0.00004  -0.00004   0.00005  -0.01245
  88        4XY        -0.00014  -0.00002   0.00028   0.00001   0.00099
  89        4XZ         0.00000   0.00000   0.00000   0.00000   0.00000
  90        4YZ         0.00000   0.00000   0.00000   0.00000   0.00000
  91 9   C  1S         -0.01132  -0.18100   0.97623  -0.00001  -0.04174
  92        2S         -0.00080  -0.00906   0.04869  -0.00003   0.07934
  93        2PX         0.00008   0.00012  -0.00063   0.00003  -0.04435
  94        2PY        -0.00014  -0.00007   0.00041  -0.00001   0.02910
  95        2PZ         0.00000   0.00000   0.00000   0.00000   0.00000
  96        3S          0.00041   0.00286  -0.01442   0.00000   0.03160
  97        3PX        -0.00002  -0.00008   0.00036  -0.00015   0.00314
  98        3PY         0.00067   0.00012  -0.00039  -0.00007   0.00067
  99        3PZ         0.00000   0.00000   0.00000   0.00000   0.00000
 100        4XX         0.00003   0.00162  -0.00879   0.00000   0.00468
 101        4YY         0.00008   0.00164  -0.00880  -0.00003  -0.00045
 102        4ZZ        -0.00003   0.00162  -0.00879  -0.00002  -0.00547
 103        4XY        -0.00005  -0.00001  -0.00001   0.00002  -0.00702
 104        4XZ         0.00000   0.00000   0.00000   0.00000   0.00000
 105        4YZ         0.00000   0.00000   0.00000   0.00000   0.00000
 106 10  H  1S          0.00005   0.00002  -0.00012  -0.00003   0.01713
 107        2S          0.00034  -0.00046   0.00228   0.00009   0.00527
 108        3PX         0.00002   0.00001  -0.00003  -0.00002  -0.00005
 109        3PY         0.00002   0.00002  -0.00015   0.00002   0.00260
 110        3PZ         0.00000   0.00000   0.00000   0.00000   0.00000
 111 11  H  1S         -0.00005   0.00002  -0.00013   0.00001   0.01602
 112        2S         -0.00007  -0.00050   0.00256   0.00003  -0.00040
 113        3PX        -0.00001  -0.00001   0.00004   0.00001  -0.00164
 114        3PY        -0.00006  -0.00001   0.00005   0.00000  -0.00014
 115        3PZ         0.00002   0.00002  -0.00012   0.00001   0.00170
 116 12  H  1S         -0.00005   0.00002  -0.00013   0.00001   0.01602
 117        2S         -0.00007  -0.00050   0.00256   0.00003  -0.00040
 118        3PX        -0.00001  -0.00001   0.00004   0.00001  -0.00164
 119        3PY        -0.00006  -0.00001   0.00005   0.00000  -0.00014
 120        3PZ        -0.00002  -0.00002   0.00012  -0.00001  -0.00170
 121 13  C  1S          0.99232  -0.00051   0.01137   0.00002  -0.04261
 122        2S          0.04954  -0.00003   0.00032   0.00001   0.08060
 123        2PX        -0.00021   0.00004  -0.00003  -0.00001  -0.00957
 124        2PY        -0.00069  -0.00003   0.00014  -0.00002  -0.05272
 125        2PZ         0.00000   0.00000   0.00000   0.00000   0.00000
 126        3S         -0.01493   0.00032  -0.00008   0.00022   0.03238
 127        3PX         0.00065  -0.00023   0.00044   0.00001  -0.00497
 128        3PY         0.00062  -0.00009  -0.00020  -0.00024   0.00365
 129        3PZ         0.00000   0.00000   0.00000   0.00000   0.00000
 130        4XX        -0.00893  -0.00002  -0.00013   0.00000  -0.00413
 131        4YY        -0.00897   0.00000  -0.00013   0.00002   0.00826
 132        4ZZ        -0.00896   0.00002  -0.00029   0.00000  -0.00541
 133        4XY         0.00001   0.00000  -0.00004   0.00002   0.00287
 134        4XZ         0.00000   0.00000   0.00000   0.00000   0.00000
 135        4YZ         0.00000   0.00000   0.00000   0.00000   0.00000
 136 14  H  1S         -0.00008  -0.00004   0.00006  -0.00002   0.01677
 137        2S          0.00266  -0.00004   0.00004   0.00004  -0.00083
 138        3PX        -0.00009   0.00001  -0.00001   0.00001   0.00088
 139        3PY         0.00001   0.00000   0.00002   0.00000  -0.00143
 140        3PZ         0.00011   0.00001  -0.00004   0.00000  -0.00172
 141 15  H  1S         -0.00015   0.00002  -0.00010  -0.00002   0.01688
 142        2S          0.00209   0.00007   0.00002  -0.00001   0.00561
 143        3PX         0.00016  -0.00001   0.00000   0.00000  -0.00232
 144        3PY         0.00003   0.00001  -0.00005   0.00001  -0.00119
 145        3PZ         0.00000   0.00000   0.00000   0.00000   0.00000
 146 16  H  1S         -0.00008  -0.00004   0.00006  -0.00002   0.01677
 147        2S          0.00266  -0.00004   0.00004   0.00004  -0.00083
 148        3PX        -0.00009   0.00001  -0.00001   0.00001   0.00089
 149        3PY         0.00001   0.00000   0.00002   0.00000  -0.00143
 150        3PZ        -0.00011  -0.00001   0.00004   0.00000   0.00172
 151 17  C  1S         -0.03279   0.01079   0.00359   0.00002  -0.04264
 152        2S         -0.00166   0.00031   0.00008   0.00001   0.08067
 153        2PX         0.00000   0.00004  -0.00002   0.00001   0.00957
 154        2PY        -0.00002   0.00014   0.00002  -0.00002  -0.05276
 155        2PZ         0.00000   0.00000   0.00000   0.00000   0.00000
 156        3S          0.00084  -0.00018   0.00027   0.00022   0.03241
 157        3PX         0.00011  -0.00049   0.00006  -0.00001   0.00497
 158        3PY        -0.00013  -0.00015  -0.00016  -0.00024   0.00365
 159        3PZ         0.00000   0.00000   0.00000   0.00000   0.00000
 160        4XX         0.00029  -0.00011  -0.00006   0.00000  -0.00413
 161        4YY         0.00031  -0.00012  -0.00004   0.00002   0.00826
 162        4ZZ         0.00030  -0.00027  -0.00009   0.00000  -0.00541
 163        4XY        -0.00001   0.00004   0.00002  -0.00002  -0.00287
 164        4XZ         0.00000   0.00000   0.00000   0.00000   0.00000
 165        4YZ         0.00000   0.00000   0.00000   0.00000   0.00000
 166 18  H  1S         -0.00001   0.00007  -0.00001  -0.00002   0.01678
[...]
     9  C   -0.039732   0.001980  -0.002230   0.001983   0.000000   0.000000
    10  H    0.003862  -0.000190   0.000240  -0.000190   0.000000   0.000000
    11  H   -0.001630  -0.000299   0.000883   0.000998   0.000000   0.000000
    12  H   -0.001629   0.001000   0.000878  -0.000298   0.000000   0.000000
    13  C    4.840265   0.387009   0.393358   0.387000  -0.000010  -0.000004
    14  H    0.387009   0.544723  -0.024449  -0.035431  -0.000004   0.000057
    15  H    0.393358  -0.024449   0.518358  -0.024445   0.000000   0.000000
    16  H    0.387000  -0.035431  -0.024445   0.544736  -0.000004  -0.000022
    17  C   -0.000010  -0.000004   0.000000  -0.000004   4.840266   0.387009
    18  H   -0.000004   0.000057   0.000000  -0.000022   0.387009   0.544721
    19  H   -0.000004  -0.000022   0.000000   0.000057   0.387001  -0.035431
    20  H    0.000000   0.000000   0.000000   0.000000   0.393357  -0.024448
    21  C    0.000000   0.000000   0.000000   0.000000  -0.039729   0.001981
    22  H    0.000000   0.000000   0.000000   0.000000  -0.001628  -0.000299
    23  H    0.000000   0.000000   0.000000   0.000000   0.003862  -0.000190
    24  H    0.000000   0.000000   0.000000   0.000000  -0.001630   0.000999
              19         20         21         22         23         24
     1  C    0.003253   0.000115   0.004525  -0.000155   0.000412  -0.000155
     2  C    0.000124  -0.000012  -0.000060   0.000004  -0.000009   0.000004
     3  H    0.000404   0.000006   0.000003   0.000001  -0.000002   0.000001
     4  H   -0.000001   0.000000  -0.000006   0.000000   0.000000   0.000000
     5  C   -0.004934   0.004321  -0.037270   0.000218  -0.002444   0.000223
     6  H   -0.000093  -0.000164  -0.006541   0.000185   0.005739   0.000185
     7  N   -0.036011  -0.030920   0.285782  -0.038188  -0.032281  -0.038182
     8  N   -0.000005   0.000000   0.000001   0.000000   0.000000   0.000000
     9  C    0.000000   0.000000   0.000000   0.000000   0.000000   0.000000
    10  H    0.000000   0.000000   0.000000   0.000000   0.000000   0.000000
    11  H    0.000000   0.000000   0.000000   0.000000   0.000000   0.000000
    12  H    0.000000   0.000000   0.000000   0.000000   0.000000   0.000000
    13  C   -0.000004   0.000000   0.000000   0.000000   0.000000   0.000000
    14  H   -0.000022   0.000000   0.000000   0.000000   0.000000   0.000000
    15  H    0.000000   0.000000   0.000000   0.000000   0.000000   0.000000
    16  H    0.000057   0.000000   0.000000   0.000000   0.000000   0.000000
    17  C    0.387001   0.393357  -0.039729  -0.001628   0.003862  -0.001630
    18  H   -0.035431  -0.024448   0.001981  -0.000299  -0.000190   0.000999
    19  H    0.544740  -0.024444   0.001982   0.000998  -0.000190  -0.000298
    20  H   -0.024444   0.518358  -0.002230   0.000882   0.000239   0.000879
    21  C    0.001982  -0.002230   4.823870   0.389831   0.389410   0.389833
    22  H    0.000998   0.000882   0.389831   0.538682  -0.024786  -0.034587
    23  H   -0.000190   0.000239   0.389410  -0.024786   0.533249  -0.024781
    24  H   -0.000298   0.000879   0.389833  -0.034587  -0.024781   0.538673
 Mulliken charges:
               1
     1  C   -0.164037
     2  C    0.194524
     3  H    0.123280
     4  H    0.146984
     5  C    0.194533
     6  H    0.146986
     7  N   -0.393845
     8  N   -0.393842
     9  C   -0.201383
    10  H    0.151769
    11  H    0.168839
    12  H    0.168836
    13  C   -0.205182
    14  H    0.162892
    15  H    0.164061
    16  H    0.162876
    17  C   -0.205182
    18  H    0.162893
    19  H    0.162876
    20  H    0.164060
    21  C   -0.201381
    22  H    0.168841
    23  H    0.151770
    24  H    0.168836
 Sum of Mulliken charges =   1.00000
 Mulliken charges with hydrogens summed into heavy atoms:
               1
     1  C   -0.040757
     2  C    0.341508
     5  C    0.341518
     7  N   -0.393845
     8  N   -0.393842
     9  C    0.288060
    13  C    0.284646
    17  C    0.284647
    21  C    0.288065
 Electronic spatial extent (au):  <R**2>=           2083.5823
 Charge=              1.0000 electrons
 Dipole moment (field-independent basis, Debye):
    X=             -0.0001    Y=             -0.3698    Z=              0.0000  Tot=              0.3698
 Quadrupole moment (field-independent basis, Debye-Ang):
   XX=             -8.8151   YY=            -42.8619   ZZ=            -55.5930
   XY=              0.0001   XZ=              0.0004   YZ=              0.0000
 Traceless Quadrupole moment (field-independent basis, Debye-Ang):
   XX=             26.9416   YY=             -7.1052   ZZ=            -19.8363
   XY=              0.0001   XZ=              0.0004   YZ=              0.0000
 Octapole moment (field-independent basis, Debye-Ang**2):
  XXX=             -0.0006  YYY=             -1.9109  ZZZ=             -0.0001  XYY=              0.0000
  XXY=             -5.8208  XXZ=             -0.0020  XZZ=             -0.0001  YZZ=              2.2574
  YYZ=              0.0009  XYZ=             -0.0007
 Hexadecapole moment (field-independent basis, Debye-Ang**3):
 XXXX=          -1627.9704 YYYY=           -348.0016 ZZZZ=            -79.2084 XXXY=              0.0024
 XXXZ=             -0.0024 YYYX=              0.0003 YYYZ=             -0.0030 ZZZX=              0.0027
 ZZZY=              0.0041 XXYY=           -362.9274 XXZZ=           -374.0397 YYZZ=            -75.1052
 XXYZ=              0.0003 YYXZ=             -0.0010 ZZXY=              0.0001
 N-N= 4.496612279246D+02 E-N=-1.778741991029D+03  KE= 3.812200665692D+02
 Orbital energies and kinetic energies (alpha):
                                 1                 2
   1         O               -14.546939         21.957126
   2         O               -14.546939         21.957262
   3         O               -10.407011         15.881598
   4         O               -10.407009         15.881557
   5         O               -10.364721         15.883272
   6         O               -10.364719         15.883273
   7         O               -10.364337         15.883523
   8         O               -10.364336         15.883466
   9         O               -10.340929         15.879133
  10         O                -1.128519          1.873768
  11         O                -1.124359          1.902227
  12         O                -0.953554          1.593924
  13         O                -0.885214          1.607240
  14         O                -0.879580          1.427044
  15         O                -0.877785          1.440933
  16         O                -0.826594          1.604500
  17         O                -0.734768          1.580581
  18         O                -0.721442          1.212439
  19         O                -0.677626          1.342036
  20         O                -0.663518          1.255082
  21         O                -0.630821          1.451831
  22         O                -0.623434          1.058444
  23         O                -0.619311          1.068011
  24         O                -0.613871          1.409526
  25         O                -0.558038          1.168188
  26         O                -0.555447          1.378870
  27         O                -0.553232          1.027004
  28         O                -0.552813          1.030673
  29         O                -0.548947          1.385988
  30         O                -0.539718          1.150697
  31         O                -0.532547          1.167352
  32         O                -0.525238          1.290397
  33         O                -0.502046          1.133174
  34         O                -0.458682          1.404382
  35         O                -0.366112          1.555510
  36         V                -0.197179          1.676028
  37         V                -0.081308          1.557961
  38         V                -0.061152          1.044225
  39         V                -0.051896          1.019100
  40         V                -0.042421          0.965243
  41         V                -0.020463          1.529536
  42         V                -0.009429          1.264579
  43         V                -0.003834          1.395964
  44         V                -0.002071          1.516952
  45         V                 0.012082          1.189905
  46         V                 0.013458          0.876801
  47         V                 0.014957          1.128275
  48         V                 0.019583          0.893859
  49         V                 0.031921          1.367212
  50         V                 0.037079          0.989273
  51         V                 0.049501          1.031582
  52         V                 0.060309          1.106673
  53         V                 0.064243          1.302036
  54         V                 0.067899          1.418109
  55         V                 0.086131          1.583352
  56         V                 0.088075          1.638824
  57         V                 0.163854          2.079911
  58         V                 0.189762          1.360084
  59         V                 0.211150          1.618906
  60         V                 0.289457          2.238977
  61         V                 0.315283          1.863402
  62         V                 0.326446          1.783610
  63         V                 0.356714          1.723258
  64         V                 0.362621          2.258397
  65         V                 0.363815          2.353794
  66         V                 0.387803          2.050047
  67         V                 0.389674          1.947861
  68         V                 0.419388          1.886979
  69         V                 0.422621          1.926494
  70         V                 0.432129          2.650110
  71         V                 0.435948          1.882940
  72         V                 0.446075          1.765043
  73         V                 0.501732          2.371216
  74         V                 0.520694          1.988573
  75         V                 0.523970          2.133225
  76         V                 0.538738          2.141539
  77         V                 0.557802          2.268204
  78         V                 0.565404          2.153625
  79         V                 0.604732          2.235472
  80         V                 0.613303          2.275840
  81         V                 0.645456          2.554349
  82         V                 0.661701          2.614336
  83         V                 0.675613          2.633024
  84         V                 0.683311          2.561154
  85         V                 0.684139          2.621071
  86         V                 0.688831          2.614890
  87         V                 0.698935          2.285679
  88         V                 0.702915          2.327412
  89         V                 0.703949          2.466536
  90         V                 0.746038          2.418363
  91         V                 0.746373          2.200520
  92         V                 0.751551          2.367294
  93         V                 0.760284          2.544814
  94         V                 0.767783          2.541741
  95         V                 0.777439          2.387932
  96         V                 0.788025          2.359166
  97         V                 0.804593          2.438757
  98         V                 0.814461          2.523951
  99         V                 0.845258          2.307784
 100         V                 0.867829          2.274123
 101         V                 0.912913          2.217441
 102         V                 0.927389          2.386975
 103         V                 0.955637          2.375684
 104         V                 1.104212          2.364588
 105         V                 1.115004          2.400644
 106         V                 1.133002          2.427937
 107         V                 1.139587          2.484818
 108         V                 1.153850          2.471311
 109         V                 1.156273          2.428380
 110         V                 1.173410          2.607399
 111         V                 1.194305          2.448006
 112         V                 1.204730          2.480890
 113         V                 1.225097          2.733560
 114         V                 1.235835          2.608578
 115         V                 1.300020          2.544370
 116         V                 1.367009          2.614287
 117         V                 1.369462          2.591197
 118         V                 1.489907          2.839468
 119         V                 1.515809          2.902878
 120         V                 1.563589          2.744166
 121         V                 1.564445          2.745465
 122         V                 1.659162          3.003544
 123         V                 1.662419          2.947149
 124         V                 1.662467          2.899849
 125         V                 1.688245          3.296551
 126         V                 1.702542          2.930762
 127         V                 1.749996          3.310598
 128         V                 1.766386          3.603604
 129         V                 1.770564          3.509745
 130         V                 1.782744          3.607252
 131         V                 1.789577          3.011990
 132         V                 1.823806          3.534658
 133         V                 1.857504          3.439958
 134         V                 1.877766          3.141205
 135         V                 1.884619          2.851100
 136         V                 1.885525          2.884852
 137         V                 1.886450          2.853180
 138         V                 1.888969          2.859198
 139         V                 1.912693          3.153666
 140         V                 1.918760          3.462208
 141         V                 1.926064          3.130730
 142         V                 1.927694          3.132980
 143         V                 1.943420          3.281642
 144         V                 1.964156          3.400941
 145         V                 1.973809          3.216399
 146         V                 1.977067          3.293983
 147         V                 1.993155          3.275953
 148         V                 2.000657          3.282222
 149         V                 2.017923          3.391877
 150         V                 2.107030          3.292931
 151         V                 2.140341          3.636889
 152         V                 2.178487          3.399246
 153         V                 2.191771          3.476701
 154         V                 2.196281          3.442002
 155         V                 2.204313          3.666565
 156         V                 2.215987          3.681960
 157         V                 2.275077          3.361089
 158         V                 2.293875          3.774422
 159         V                 2.315304          3.449829
 160         V                 2.323661          3.490205
 161         V                 2.367895          3.934208
 162         V                 2.384056          3.603586
 163         V                 2.403563          3.599137
 164         V                 2.442189          3.668007
 165         V                 2.442277          3.905423
 166         V                 2.461917          3.640106
 167         V                 2.481281          3.759722
 168         V                 2.487101          3.632210
 169         V                 2.505736          3.868634
 170         V                 2.511883          3.785773
 171         V                 2.546013          3.718888
 172         V                 2.550741          3.746911
 173         V                 2.587948          3.931562
 174         V                 2.627433          4.276479
 175         V                 2.669231          3.947181
 176         V                 2.673892          4.115465
 177         V                 2.695469          3.867901
 178         V                 2.699961          4.050170
 179         V                 2.700802          3.883798
 180         V                 2.707151          4.070683
 181         V                 2.739781          3.948571
 182         V                 2.741181          3.952141
 183         V                 2.914123          4.685024
 184         V                 2.922741          4.597458
 185         V                 2.958506          4.673652
 186         V                 2.963783          4.855496
 187         V                 3.036106          4.882577
 188         V                 3.044516          4.915836
 189         V                 3.079739          4.979819
 190         V                 3.081647          4.996430
 191         V                 3.221872          5.188394
 192         V                 3.267726          5.068065
 193         V                 3.267733          5.068116
 194         V                 3.269016          5.100589
 195         V                 3.271653          5.075372
 196         V                 3.272316          5.076910
 197         V                 3.295319          5.094550
 198         V                 3.307412          5.093634
 199         V                 3.328919          5.202005
 200         V                 3.447734          5.327893
 201         V                 3.477761          5.542340
 202         V                 3.837736         10.204703
 203         V                 3.948083         10.438331
 204         V                 3.990113         10.065149
 205         V                 4.166805         10.034864
 206         V                 4.292483          9.975462
 207         V                 4.315533         10.014227
 208         V                 4.330093         10.013693
 209         V                 4.399548         10.129034
 210         V                 4.522160          9.913765
 Total kinetic energy from orbitals= 3.812200665692D+02
 Leave Link  601 at Tue Jun 08 18:06:15 2021, MaxMem=    33554432 cpu:         0.0
 (Enter C:\G09W\l9999.exe)
 1|1|UNPC-DESKTOP-283F0EC|SP|RB3LYP TD-FC|6-31G(d,p)|C7H15N2(1+)|HANA|0
 8-Jun-2021|0||#p td(NStates=10) b3lyp/6-31g(d,p) nosymm pop=full||td||
 1,1|C,0,-0.00001924,0.135661,0.00004533|C,0,1.19922507,-0.57761158,0.0
 0000288|H,0,-0.00005063,1.21754002,0.00012853|H,0,1.15806463,-1.664633
 81,0.00001343|C,0,-1.19925295,-0.57762288,0.00002494|H,0,-1.15807834,-
 1.66464439,-0.00001892|N,0,-2.42076985,-0.06743576,0.0000516|N,0,2.420
 76054,-0.06744249,-0.00004828|C,0,3.61118329,-0.9247339,0.00001306|H,0
 ,3.31360246,-1.97357054,0.00023874|H,0,4.21413008,-0.72513714,-0.89045
 929|H,0,4.21425855,-0.72480746,0.89031963|C,0,2.63940694,1.38384123,-0
 .00002203|H,0,2.19893829,1.83718793,0.89306196|H,0,3.71038074,1.580865
 06,-0.00042744|H,0,2.19830121,1.83729766,-0.89273317|C,0,-2.63934051,1
 .38386064,0.00000067|H,0,-2.19881007,1.83722252,0.89304667|H,0,-2.1982
 3823,1.83722718,-0.89276044|H,0,-3.71030672,1.58093554,-0.00034859|C,0
 ,-3.61121174,-0.92471185,-0.00004721|H,0,-4.21398387,-0.72519287,-0.89
 065554|H,0,-3.31363505,-1.9735474,0.00034155|H,0,-4.21445306,-0.724690
 46,0.89012381||Version=EM64W-G09RevD.01|HF=-385.0817067|RMSD=4.320e-00
 9|PG=C01 [X(C7H15N2)]||@


 MORNING PEOPLE ARE USUALLY ADMIRED AS EARLY BIRDS.
 RECALL BEN FRANKLIN'S APHORISM THAT THE EARLY BIRD GETS THE WORM.
 I IDENTIFY WITH THE WORM. --  CRAIG JAGGER, MINNEAPOLIS, KS.
 Job cpu time:       0 days  0 hours 13 minutes 16.0 seconds.
 File lengths (MBytes):  RWF=    119 Int=      0 D2E=      0 Chk=     17 Scr=      1
 Normal termination of Gaussian 09 at Tue Jun 08 18:06:16 2021.
