 Entering Link 1 = C:\G09W\l1.exe PID=     24440.
  
 Copyright (c) 1988,1990,1992,1993,1995,1998,2003,2009,2013,
            Gaussian, Inc.  All Rights Reserved.
  
 This is part of the Gaussian(R) 09 program.  It is based on
 the Gaussian(R) 03 system (copyright 2003, Gaussian, Inc.),
 the Gaussian(R) 98 system (copyright 1998, Gaussian, Inc.),
 the Gaussian(R) 94 system (copyright 1995, Gaussian, Inc.),
 the Gaussian 92(TM) system (copyright 1992, Gaussian, Inc.),
 the Gaussian 90(TM) system (copyright 1990, Gaussian, Inc.),
 the Gaussian 88(TM) system (copyright 1988, Gaussian, Inc.),
 the Gaussian 86(TM) system (copyright 1986, Carnegie Mellon
 University), and the Gaussian 82(TM) system (copyright 1983,
 Carnegie Mellon University). Gaussian is a federally registered
 trademark of Gaussian, Inc.
  
 This software contains proprietary and confidential information,
 including trade secrets, belonging to Gaussian, Inc.
  
 This software is provided under written license and may be
 used, copied, transmitted, or stored only in accord with that
 written license.
  
 The following legend is applicable only to US Government
 contracts under FAR:
  
                    RESTRICTED RIGHTS LEGEND
  
 Use, reproduction and disclosure by the US Government is
 subject to restrictions as set forth in subparagraphs (a)
 and (c) of the Commercial Computer Software - Restricted
 Rights clause in FAR 52.227-19.
  
 Gaussian, Inc.
 340 Quinnipiac St., Bldg. 40, Wallingford CT 06492
  
  
 ---------------------------------------------------------------
 Warning -- This program may not be used in any manner that
 competes with the business of Gaussian, Inc. or will provide
 assistance to any competitor of Gaussian, Inc.  The licensee
 of this program is prohibited from giving any competitor of
 Gaussian, Inc. access to this program.  By using this program,
 the user acknowledges that Gaussian, Inc. is engaged in the
 business of creating and licensing software in the field of
 computational chemistry and represents and warrants to the
 licensee that it is not a competitor of Gaussian, Inc. and that
 it will not use this program in any manner prohibited above.
 ---------------------------------------------------------------
  

 Cite this work as:
 Gaussian 09, Revision D.01,
 M. J. Frisch, G. W. Trucks, H. B. Schlegel, G. E. Scuseria, 
 M. A. Robb, J. R. Cheeseman, G. Scalmani, V. Barone, B. Mennucci, 
 G. A. Petersson, H. Nakatsuji, M. Caricato, X. Li, H. P. Hratchian, 
 A. F. Izmaylov, J. Bloino, G. Zheng, J. L. Sonnenberg, M. Hada, 
 M. Ehara, K. Toyota, R. Fukuda, J. Hasegawa, M. Ishida, T. Nakajima, 
 Y. Honda, O. Kitao, H. Nakai, T. Vreven, J. A. Montgomery, Jr., 
 J. E. Peralta, F. Ogliaro, M. Bearpark, J. J. Heyd, E. Brothers, 
 K. N. Kudin, V. N. Staroverov, T. Keith, R. Kobayashi, J. Normand, 
 K. Raghavachari, A. Rendell, J. C. Burant, S. S. Iyengar, J. Tomasi, 
 M. Cossi, N. Rega, J. M. Millam, M. Klene, J. E. Knox, J. B. Cross, 
 V. Bakken, C. Adamo, J. Jaramillo, R. Gomperts, R. E. Stratmann, 
 O. Yazyev, A. J. Austin, R. Cammi, C. Pomelli, J. W. Ochterski, 
 R. L. Martin, K. Morokuma, V. G. Zakrzewski, G. A. Voth, 
 P. Salvador, J. J. Dannenberg, S. Dapprich, A. D. Daniels, 
 O. Farkas, J. B. Foresman, J. V. Ortiz, J. Cioslowski, 
 and D. J. Fox, Gaussian, Inc., Wallingford CT, 2013.
 
 ******************************************
 Gaussian 09:  EM64W-G09RevD.01 13-Apr-2013
                08-Jun-2021 
 ******************************************
 %chk=C:\G09W\mine\substituent\pp\1\1_pp_opt.chk
 ---------------------------------------------------
 #p opt b3lyp/6-31g(d,p) geom=connectivity scf=tight
 ---------------------------------------------------
 1/14=-1,18=20,19=15,26=3,38=1,57=2/1,3;
 2/9=110,12=2,17=6,18=5,40=1/2;
 3/5=1,6=6,7=101,11=2,16=1,25=1,30=1,71=1,74=-5/1,2,3;
 4//1;
 5/5=2,32=2,38=5/2;
 6/7=2,8=2,9=2,10=2,28=1/1;
 7//1,2,3,16;
 1/14=-1,18=20,19=15,26=3/3(2);
 2/9=110/2;
 99//99;
 2/9=110/2;
 3/5=1,6=6,7=101,11=2,16=1,25=1,30=1,71=1,74=-5/1,2,3;
 4/5=5,16=3,69=1/1;
 5/5=2,32=2,38=5/2;
 7//1,2,3,16;
 1/14=-1,18=20,19=15,26=3/3(-5);
 2/9=110/2;
 6/7=2,8=2,9=2,10=2,19=2,28=1/1;
 99/9=1/99;
 Leave Link    1 at Tue Jun 08 16:20:29 2021, MaxMem=           0 cpu:         0.0
 (Enter C:\G09W\l101.exe)
 ------------
 Optimization
 ------------
 Symbolic Z-matrix:
 Charge =  1 Multiplicity = 1
 C                     0.03553   0.04797   0.02546 
 C                    -0.02984   0.32167   1.35113 
 H                    -0.85384  -0.20462  -0.51316 
 H                     0.85954   0.57426   1.88975 
 C                     1.38984   0.1005   -0.70576 
 H                     2.27921   0.35309  -0.16714 
 N                     1.45223  -0.16076  -1.97117 
 N                    -1.32259   0.27153   2.04911 
 C                    -1.31437   1.22838   3.16503 
 H                    -1.15128   2.21595   2.78687 
 H                    -2.25535   1.19189   3.67309 
 H                    -0.5305    0.97379   3.8474 
 C                    -1.54665  -1.08522   2.56864 
 H                    -0.76278  -1.33982   3.25101 
 H                    -2.48763  -1.12172   3.0767 
 H                    -1.55263  -1.7817    1.75637 
 C                     0.23038  -0.50778  -2.71114 
 H                     0.08449  -1.56738  -2.68188 
 H                    -0.60927  -0.0196   -2.26218 
 H                     0.32655  -0.18894  -3.728 
 C                     2.74498  -0.11063  -2.66915 
 H                     2.90807   0.87695  -3.04731 
 H                     3.52885  -0.36522  -1.98678 
 H                     2.739    -0.80711  -3.48142 
 
 NAtoms=     24 NQM=       24 NQMF=       0 NMMI=      0 NMMIF=      0
                NMic=       0 NMicF=      0.
                    Isotopes and Nuclear Properties:
 (Nuclear quadrupole moments (NQMom) in fm**2, nuclear magnetic moments (NMagM)
  in nuclear magnetons)

  Atom         1           2           3           4           5           6           7           8           9          10
 IAtWgt=          12          12           1           1          12           1          14          14          12           1
 AtmWgt=  12.0000000  12.0000000   1.0078250   1.0078250  12.0000000   1.0078250  14.0030740  14.0030740  12.0000000   1.0078250
 NucSpn=           0           0           1           1           0           1           2           2           0           1
 AtZEff=   0.0000000   0.0000000   0.0000000   0.0000000   0.0000000   0.0000000   0.0000000   0.0000000   0.0000000   0.0000000
 NQMom=    0.0000000   0.0000000   0.0000000   0.0000000   0.0000000   0.0000000   2.0440000   2.0440000   0.0000000   0.0000000
 NMagM=    0.0000000   0.0000000   2.7928460   2.7928460   0.0000000   2.7928460   0.4037610   0.4037610   0.0000000   2.7928460
 AtZNuc=   6.0000000   6.0000000   1.0000000   1.0000000   6.0000000   1.0000000   7.0000000   7.0000000   6.0000000   1.0000000

  Atom        11          12          13          14          15          16          17          18          19          20
 IAtWgt=           1           1          12           1           1           1          12           1           1           1
 AtmWgt=   1.0078250   1.0078250  12.0000000   1.0078250   1.0078250   1.0078250  12.0000000   1.0078250   1.0078250   1.0078250
 NucSpn=           1           1           0           1           1           1           0           1           1           1
 AtZEff=   0.0000000   0.0000000   0.0000000   0.0000000   0.0000000   0.0000000   0.0000000   0.0000000   0.0000000   0.0000000
 NQMom=    0.0000000   0.0000000   0.0000000   0.0000000   0.0000000   0.0000000   0.0000000   0.0000000   0.0000000   0.0000000
 NMagM=    2.7928460   2.7928460   0.0000000   2.7928460   2.7928460   2.7928460   0.0000000   2.7928460   2.7928460   2.7928460
 AtZNuc=   1.0000000   1.0000000   6.0000000   1.0000000   1.0000000   1.0000000   6.0000000   1.0000000   1.0000000   1.0000000

  Atom        21          22          23          24
 IAtWgt=          12           1           1           1
 AtmWgt=  12.0000000   1.0078250   1.0078250   1.0078250
 NucSpn=           0           1           1           1
 AtZEff=   0.0000000   0.0000000   0.0000000   0.0000000
 NQMom=    0.0000000   0.0000000   0.0000000   0.0000000
 NMagM=    0.0000000   2.7928460   2.7928460   2.7928460
 AtZNuc=   6.0000000   1.0000000   1.0000000   1.0000000
 Leave Link  101 at Tue Jun 08 16:20:30 2021, MaxMem=    33554432 cpu:         0.0
 (Enter C:\G09W\l103.exe)

 GradGradGradGradGradGradGradGradGradGradGradGradGradGradGradGradGradGrad
 Berny optimization.
 Initialization pass.
                           ----------------------------
                           !    Initial Parameters    !
                           ! (Angstroms and Degrees)  !
 --------------------------                            --------------------------
 ! Name  Definition              Value          Derivative Info.                !
 --------------------------------------------------------------------------------
 ! R1    R(1,2)                  1.3552         estimate D2E/DX2                !
 ! R2    R(1,3)                  1.07           estimate D2E/DX2                !
 ! R3    R(1,5)                  1.54           estimate D2E/DX2                !
 ! R4    R(2,4)                  1.07           estimate D2E/DX2                !
 ! R5    R(2,8)                  1.47           estimate D2E/DX2                !
 ! R6    R(5,6)                  1.07           estimate D2E/DX2                !
 ! R7    R(5,7)                  1.2936         estimate D2E/DX2                !
 ! R8    R(7,17)                 1.47           estimate D2E/DX2                !
 ! R9    R(7,21)                 1.47           estimate D2E/DX2                !
 ! R10   R(8,9)                  1.47           estimate D2E/DX2                !
 ! R11   R(8,13)                 1.47           estimate D2E/DX2                !
 ! R12   R(9,10)                 1.07           estimate D2E/DX2                !
 ! R13   R(9,11)                 1.07           estimate D2E/DX2                !
 ! R14   R(9,12)                 1.07           estimate D2E/DX2                !
 ! R15   R(13,14)                1.07           estimate D2E/DX2                !
 ! R16   R(13,15)                1.07           estimate D2E/DX2                !
 ! R17   R(13,16)                1.07           estimate D2E/DX2                !
 ! R18   R(17,18)                1.07           estimate D2E/DX2                !
 ! R19   R(17,19)                1.07           estimate D2E/DX2                !
 ! R20   R(17,20)                1.07           estimate D2E/DX2                !
 ! R21   R(21,22)                1.07           estimate D2E/DX2                !
 ! R22   R(21,23)                1.07           estimate D2E/DX2                !
 ! R23   R(21,24)                1.07           estimate D2E/DX2                !
 ! A1    A(2,1,3)              120.0            estimate D2E/DX2                !
 ! A2    A(2,1,5)              120.0            estimate D2E/DX2                !
 ! A3    A(3,1,5)              120.0            estimate D2E/DX2                !
 ! A4    A(1,2,4)              120.0            estimate D2E/DX2                !
 ! A5    A(1,2,8)              120.0            estimate D2E/DX2                !
 ! A6    A(4,2,8)              120.0            estimate D2E/DX2                !
 ! A7    A(1,5,6)              120.0            estimate D2E/DX2                !
 ! A8    A(1,5,7)              120.0            estimate D2E/DX2                !
 ! A9    A(6,5,7)              120.0            estimate D2E/DX2                !
 ! A10   A(5,7,17)             120.0            estimate D2E/DX2                !
 ! A11   A(5,7,21)             120.0            estimate D2E/DX2                !
 ! A12   A(17,7,21)            120.0            estimate D2E/DX2                !
 ! A13   A(2,8,9)              109.4712         estimate D2E/DX2                !
 ! A14   A(2,8,13)             109.4712         estimate D2E/DX2                !
 ! A15   A(9,8,13)             109.4712         estimate D2E/DX2                !
 ! A16   A(8,9,10)             109.4712         estimate D2E/DX2                !
 ! A17   A(8,9,11)             109.4712         estimate D2E/DX2                !
 ! A18   A(8,9,12)             109.4712         estimate D2E/DX2                !
 ! A19   A(10,9,11)            109.4712         estimate D2E/DX2                !
 ! A20   A(10,9,12)            109.4712         estimate D2E/DX2                !
 ! A21   A(11,9,12)            109.4712         estimate D2E/DX2                !
 ! A22   A(8,13,14)            109.4712         estimate D2E/DX2                !
 ! A23   A(8,13,15)            109.4712         estimate D2E/DX2                !
 ! A24   A(8,13,16)            109.4712         estimate D2E/DX2                !
 ! A25   A(14,13,15)           109.4712         estimate D2E/DX2                !
 ! A26   A(14,13,16)           109.4712         estimate D2E/DX2                !
 ! A27   A(15,13,16)           109.4712         estimate D2E/DX2                !
 ! A28   A(7,17,18)            109.4712         estimate D2E/DX2                !
 ! A29   A(7,17,19)            109.4712         estimate D2E/DX2                !
 ! A30   A(7,17,20)            109.4712         estimate D2E/DX2                !
 ! A31   A(18,17,19)           109.4712         estimate D2E/DX2                !
 ! A32   A(18,17,20)           109.4712         estimate D2E/DX2                !
 ! A33   A(19,17,20)           109.4712         estimate D2E/DX2                !
 ! A34   A(7,21,22)            109.4712         estimate D2E/DX2                !
 ! A35   A(7,21,23)            109.4712         estimate D2E/DX2                !
 ! A36   A(7,21,24)            109.4712         estimate D2E/DX2                !
 ! A37   A(22,21,23)           109.4712         estimate D2E/DX2                !
 ! A38   A(22,21,24)           109.4712         estimate D2E/DX2                !
 ! A39   A(23,21,24)           109.4712         estimate D2E/DX2                !
 ! D1    D(3,1,2,4)            179.9999         estimate D2E/DX2                !
 ! D2    D(3,1,2,8)             -0.0001         estimate D2E/DX2                !
 ! D3    D(5,1,2,4)              0.0            estimate D2E/DX2                !
 ! D4    D(5,1,2,8)           -180.0            estimate D2E/DX2                !
 ! D5    D(2,1,5,6)              0.0            estimate D2E/DX2                !
 ! D6    D(2,1,5,7)            180.0            estimate D2E/DX2                !
 ! D7    D(3,1,5,6)           -179.9999         estimate D2E/DX2                !
 ! D8    D(3,1,5,7)              0.0001         estimate D2E/DX2                !
 ! D9    D(1,2,8,9)           -150.0            estimate D2E/DX2                !
 ! D10   D(1,2,8,13)            90.0            estimate D2E/DX2                !
 ! D11   D(4,2,8,9)             30.0            estimate D2E/DX2                !
 ! D12   D(4,2,8,13)           -90.0            estimate D2E/DX2                !
 ! D13   D(1,5,7,17)             0.0001         estimate D2E/DX2                !
 ! D14   D(1,5,7,21)          -179.9999         estimate D2E/DX2                !
 ! D15   D(6,5,7,17)          -180.0            estimate D2E/DX2                !
 ! D16   D(6,5,7,21)             0.0            estimate D2E/DX2                !
 ! D17   D(5,7,17,18)          -90.0            estimate D2E/DX2                !
 ! D18   D(5,7,17,19)           30.0            estimate D2E/DX2                !
 ! D19   D(5,7,17,20)          150.0            estimate D2E/DX2                !
 ! D20   D(21,7,17,18)          90.0            estimate D2E/DX2                !
 ! D21   D(21,7,17,19)        -150.0            estimate D2E/DX2                !
 ! D22   D(21,7,17,20)         -30.0            estimate D2E/DX2                !
 ! D23   D(5,7,21,22)          -90.0            estimate D2E/DX2                !
 ! D24   D(5,7,21,23)           30.0            estimate D2E/DX2                !
 ! D25   D(5,7,21,24)          150.0            estimate D2E/DX2                !
 ! D26   D(17,7,21,22)          90.0            estimate D2E/DX2                !
 ! D27   D(17,7,21,23)        -150.0            estimate D2E/DX2                !
 ! D28   D(17,7,21,24)         -30.0            estimate D2E/DX2                !
 ! D29   D(2,8,9,10)            60.0            estimate D2E/DX2                !
 ! D30   D(2,8,9,11)           180.0            estimate D2E/DX2                !
 ! D31   D(2,8,9,12)           -60.0            estimate D2E/DX2                !
 ! D32   D(13,8,9,10)          180.0            estimate D2E/DX2                !
 ! D33   D(13,8,9,11)          -60.0            estimate D2E/DX2                !
 ! D34   D(13,8,9,12)           60.0            estimate D2E/DX2                !
 ! D35   D(2,8,13,14)           60.0            estimate D2E/DX2                !
 ! D36   D(2,8,13,15)          180.0            estimate D2E/DX2                !
 ! D37   D(2,8,13,16)          -60.0            estimate D2E/DX2                !
 ! D38   D(9,8,13,14)          -60.0            estimate D2E/DX2                !
 ! D39   D(9,8,13,15)           60.0            estimate D2E/DX2                !
 ! D40   D(9,8,13,16)          180.0            estimate D2E/DX2                !
 --------------------------------------------------------------------------------
 Trust Radius=3.00D-01 FncErr=1.00D-07 GrdErr=1.00D-06
 Number of steps in this run=    112 maximum allowed number of steps=    144.
 GradGradGradGradGradGradGradGradGradGradGradGradGradGradGradGradGradGrad

 Leave Link  103 at Tue Jun 08 16:20:30 2021, MaxMem=    33554432 cpu:         0.0
 (Enter C:\G09W\l202.exe)
                          Input orientation:                          
 ---------------------------------------------------------------------
 Center     Atomic      Atomic             Coordinates (Angstroms)
 Number     Number       Type             X           Y           Z
 ---------------------------------------------------------------------
      1          6           0        0.035528    0.047974    0.025461
      2          6           0       -0.029836    0.321671    1.351125
      3          1           0       -0.853845   -0.204618   -0.513160
      4          1           0        0.859537    0.574263    1.889747
      5          6           0        1.389837    0.100498   -0.705762
      6          1           0        2.279210    0.353088   -0.167140
      7          7           0        1.452230   -0.160759   -1.971168
      8          7           0       -1.322586    0.271535    2.049111
      9          6           0       -1.314368    1.228382    3.165030
     10          1           0       -1.151277    2.215953    2.786871
     11          1           0       -2.255349    1.191888    3.673088
     12          1           0       -0.530498    0.973786    3.847399
     13          6           0       -1.546646   -1.085222    2.568638
     14          1           0       -0.762776   -1.339818    3.251007
     15          1           0       -2.487627   -1.121716    3.076696
     16          1           0       -1.552628   -1.781703    1.756371
     17          6           0        0.230381   -0.507775   -2.711145
     18          1           0        0.084490   -1.567378   -2.681878
     19          1           0       -0.609271   -0.019601   -2.262179
     20          1           0        0.326552   -0.188936   -3.727999
     21          6           0        2.744980   -0.110625   -2.669154
     22          1           0        2.908074    0.876945   -3.047313
     23          1           0        3.528850   -0.365223   -1.986784
     24          1           0        2.738998   -0.807107   -3.481421
 ---------------------------------------------------------------------
                    Distance matrix (angstroms):
                    1          2          3          4          5
     1  C    0.000000
     2  C    1.355200   0.000000
     3  H    1.070000   2.105120   0.000000
     4  H    2.105120   1.070000   3.052261   0.000000
     5  C    1.540000   2.509019   2.272510   2.691159   0.000000
     6  H    2.272510   2.763659   3.201062   2.509019   1.070000
     7  N    2.457060   3.669727   2.728680   3.974696   1.293600
     8  N    2.447368   1.470000   2.647957   2.208778   3.869860
     9  C    3.615588   2.400500   3.974249   2.603859   4.854677
    10  H    3.705944   2.628174   4.103394   2.746516   4.809459
    11  H    4.456662   3.331921   4.630240   3.642016   5.801108
    12  H    3.972999   2.628174   4.528539   2.433971   5.018127
    13  C    3.202368   2.400500   3.279165   3.000750   4.555279
    14  H    3.601028   2.628174   3.932675   2.854581   4.729088
    15  H    4.128501   3.331921   4.049368   3.935569   5.552975
    16  H    2.977584   2.628174   2.850660   3.374448   4.273509
    17  C    2.799256   4.154242   2.469531   4.768107   2.394972
    18  H    3.153006   4.454963   2.727806   5.107551   2.896684
    19  H    2.377736   3.675347   1.775701   4.443935   2.536393
    20  H    3.772172   5.117151   3.424729   5.694349   3.216872
    21  C    3.824557   4.903991   4.196270   4.980717   2.394972
    22  H    4.287267   5.318450   4.663019   5.353754   2.896684
    23  H    4.052550   4.927242   4.626595   4.799517   2.536393
    24  H    4.509783   5.682788   4.699158   5.855767   3.216872
                    6          7          8          9         10
     6  H    0.000000
     7  N    2.049989   0.000000
     8  N    4.229817   4.903991   0.000000
     9  C    4.978283   5.997026   1.470000   0.000000
    10  H    4.895374   5.921651   2.086720   1.070000   0.000000
    11  H    6.001097   6.887193   2.086720   1.070000   1.747303
    12  H    4.939256   6.250930   2.086720   1.070000   1.747303
    13  C    4.918374   5.518853   1.470000   2.400500   3.331921
    14  H    4.878867   5.793751   2.086720   2.628174   3.606919
    15  H    5.951492   6.475095   2.086720   2.628174   3.606919
    16  H    4.789594   5.054817   2.086720   3.331921   4.147803
    17  C    3.377979   1.470000   5.067452   6.319013   6.289344
    18  H    3.850831   2.086720   5.267231   6.630190   6.763722
    19  H    3.587675   2.086720   4.379589   5.613308   5.548367
    20  H    4.097119   2.086720   6.025503   7.226013   7.100070
    21  C    2.586899   1.470000   6.241247   7.232493   7.096619
    22  H    2.994210   2.086720   6.651207   7.519690   7.232495
    23  H    2.321352   2.086720   6.342740   7.248278   7.166160
    24  H    3.541457   2.086720   6.945986   8.046633   7.972742
                   11         12         13         14         15
    11  H    0.000000
    12  H    1.747303   0.000000
    13  C    2.628174   2.628174   0.000000
    14  H    2.969085   2.400500   1.070000   0.000000
    15  H    2.400500   2.969085   1.070000   1.747303   0.000000
    16  H    3.606919   3.606919   1.070000   1.747303   1.747303
    17  C    7.058763   6.766717   5.600659   6.101304   6.423675
    18  H    7.312592   7.033292   5.519149   5.997397   6.322625
    19  H    6.277314   6.190312   5.034979   5.671134   5.765975
    20  H    7.959207   7.711881   6.630222   7.156654   7.422504
    21  C    8.180701   7.373613   6.841225   6.990249   7.836918
    22  H    8.480798   7.705207   7.431928   7.619582   8.403079
    23  H    8.241099   7.232493   6.857911   6.841224   7.899944
    24  H    8.951340   8.220267   7.419388   7.607351   8.391990
                   16         17         18         19         20
    16  H    0.000000
    17  C    4.976013   0.000000
    18  H    4.735414   1.070000   0.000000
    19  H    4.488169   1.070000   1.747303   0.000000
    20  H    6.012199   1.070000   1.747303   1.747303   0.000000
    21  C    6.391182   2.546115   3.033233   3.380076   2.641228
    22  H    7.074012   3.033233   3.752451   3.713751   2.874664
    23  H    6.468311   3.380076   3.713751   4.161652   3.649332
    24  H    6.841225   2.641228   2.874664   3.649332   2.502565
                   21         22         23         24
    21  C    0.000000
    22  H    1.070000   0.000000
    23  H    1.070000   1.747303   0.000000
    24  H    1.070000   1.747303   1.747303   0.000000
 Stoichiometry    C7H15N2(1+)
 Framework group  C1[X(C7H15N2)]
 Deg. of freedom    66
 Full point group                 C1      NOp   1
 Largest Abelian subgroup         C1      NOp   1
 Largest concise Abelian subgroup C1      NOp   1
                         Standard orientation:                         
 ---------------------------------------------------------------------
 Center     Atomic      Atomic             Coordinates (Angstroms)
 Number     Number       Type             X           Y           Z
 ---------------------------------------------------------------------
      1          6           0       -0.013376    0.106258   -0.147546
      2          6           0        1.178932   -0.501188    0.066879
      3          1           0       -0.044635    1.091876   -0.562854
      4          1           0        1.210191   -1.486805    0.482188
      5          6           0       -1.323282   -0.622014    0.206524
      6          1           0       -1.292024   -1.607631    0.621834
      7          7           0       -2.461394   -0.042179    0.001846
      8          7           0        2.429297    0.193981   -0.271096
      9          6           0        3.453412   -0.792768   -0.643136
     10          1           0        3.117150   -1.353839   -1.489911
     11          1           0        4.363541   -0.286761   -0.889146
     12          1           0        3.624988   -1.455951    0.178843
     13          6           0        2.891264    0.964798    0.892230
     14          1           0        3.062840    0.301615    1.714209
     15          1           0        3.801393    1.470805    0.646221
     16          1           0        2.145820    1.683044    1.163035
     17          6           0       -2.504339    1.311892   -0.568721
     18          1           0       -2.481872    2.032834    0.221619
     19          1           0       -1.658388    1.456673   -1.207709
     20          1           0       -3.404016    1.431786   -1.135384
     21          6           0       -3.711759   -0.737347    0.339824
     22          1           0       -4.048023   -1.298419   -0.506950
     23          1           0       -3.540182   -1.400529    1.161804
     24          1           0       -4.457203   -0.019100    0.610629
 ---------------------------------------------------------------------
 Rotational constants (GHZ):      4.3310480      0.5820700      0.5525824
 Leave Link  202 at Tue Jun 08 16:20:30 2021, MaxMem=    33554432 cpu:         0.0
 (Enter C:\G09W\l301.exe)
 Standard basis: 6-31G(d,p) (6D, 7F)
 Ernie: Thresh=  0.10000D-02 Tol=  0.10000D-05 Strict=F.
 There are   210 symmetry adapted cartesian basis functions of A   symmetry.
 There are   210 symmetry adapted basis functions of A   symmetry.
   210 basis functions,   357 primitive gaussians,   210 cartesian basis functions
    35 alpha electrons       35 beta electrons
       nuclear repulsion energy       447.8824399207 Hartrees.
 IExCor=  402 DFT=T Ex+Corr=B3LYP ExCW=0 ScaHFX=  0.200000
 ScaDFX=  0.800000  0.720000  1.000000  0.810000 ScalE2=  1.000000  1.000000
 IRadAn=      0 IRanWt=     -1 IRanGd=            0 ICorTp=0 IEmpDi=  4
 NAtoms=   24 NActive=   24 NUniq=   24 SFac= 1.00D+00 NAtFMM=   60 NAOKFM=F Big=F
 Integral buffers will be    131072 words long.
 Raffenetti 2 integral format.
 Two-electron integral symmetry is turned on.
 Leave Link  301 at Tue Jun 08 16:20:31 2021, MaxMem=    33554432 cpu:         1.0
 (Enter C:\G09W\l302.exe)
 NPDir=0 NMtPBC=     1 NCelOv=     1 NCel=       1 NClECP=     1 NCelD=      1
         NCelK=      1 NCelE2=     1 NClLst=     1 CellRange=     0.0.
 One-electron integrals computed using PRISM.
 NBasis=   210 RedAO= T EigKep=  2.31D-03  NBF=   210
 NBsUse=   210 1.00D-06 EigRej= -1.00D+00 NBFU=   210
 Precomputing XC quadrature grid using
 IXCGrd= 4 IRadAn=           0 IRanWt=          -1 IRanGd=           0 AccXCQ= 0.00D+00.
 Generated NRdTot=       0 NPtTot=           0 NUsed=           0 NTot=          32
 NSgBfM=   210   210   210   210   210 MxSgAt=    24 MxSgA2=    24.
 Leave Link  302 at Tue Jun 08 16:20:31 2021, MaxMem=    33554432 cpu:         0.0
 (Enter C:\G09W\l303.exe)
 DipDrv:  MaxL=1.
 Leave Link  303 at Tue Jun 08 16:20:32 2021, MaxMem=    33554432 cpu:         1.0
 (Enter C:\G09W\l401.exe)
 ExpMin= 1.61D-01 ExpMax= 4.17D+03 ExpMxC= 6.27D+02 IAcc=1 IRadAn=         1 AccDes= 0.00D+00
 Harris functional with IExCor=  402 and IRadAn=       1 diagonalized for initial guess.
 HarFok:  IExCor=  402 AccDes= 0.00D+00 IRadAn=         1 IDoV= 1 UseB2=F ITyADJ=14
 ICtDFT=  3500011 ScaDFX=  1.000000  1.000000  1.000000  1.000000
 FoFCou: FMM=F IPFlag=           0 FMFlag=      100000 FMFlg1=           0
         NFxFlg=           0 DoJE=T BraDBF=F KetDBF=T FulRan=T
         wScrn=  0.000000 ICntrl=     500 IOpCl=  0 I1Cent=   200000004 NGrid=           0
         NMat0=    1 NMatS0=      1 NMatT0=    0 NMatD0=    1 NMtDS0=    0 NMtDT0=    0
 Petite list used in FoFCou.
 Harris En= -385.058594468460    
 JPrj=0 DoOrth=F DoCkMO=F.
 Leave Link  401 at Tue Jun 08 16:20:34 2021, MaxMem=    33554432 cpu:         2.0
 (Enter C:\G09W\l502.exe)
 Closed shell SCF:
 Using DIIS extrapolation, IDIIS=  1040.
 Integral symmetry usage will be decided dynamically.
 IVT=      153709 IEndB=      153709 NGot=    33554432 MDV=    33461674
 LenX=    33461674 LenY=    33417133
 Requested convergence on RMS density matrix=1.00D-08 within 128 cycles.
 Requested convergence on MAX density matrix=1.00D-06.
 Requested convergence on             energy=1.00D-06.
 No special actions if energy rises.
 Fock matrices will be formed incrementally for  20 cycles.
 Integral accuracy reduced to 1.0D-05 until final iterations.

 Cycle   1  Pass 0  IDiag  1:
 FoFJK:  IHMeth= 1 ICntrl=       0 DoSepK=F KAlg= 0 I1Cent=   0 FoldK=F
 IRaf= 830000000 NMat=   1 IRICut=       1 DoRegI=T DoRafI=F ISym2E= 0.
 FoFCou: FMM=F IPFlag=           0 FMFlag=      100000 FMFlg1=           0
         NFxFlg=           0 DoJE=F BraDBF=F KetDBF=F FulRan=T
         wScrn=  0.000000 ICntrl=       0 IOpCl=  0 I1Cent=           0 NGrid=           0
         NMat0=    1 NMatS0=      1 NMatT0=    0 NMatD0=    1 NMtDS0=    0 NMtDT0=    0
 Symmetry not used in FoFCou.
 E= -384.799776638587    
 DIIS: error= 2.45D-02 at cycle   1 NSaved=   1.
 NSaved= 1 IEnMin= 1 EnMin= -384.799776638587     IErMin= 1 ErrMin= 2.45D-02
 ErrMax= 2.45D-02  0.00D+00 EMaxC= 1.00D-01 BMatC= 2.07D-01 BMatP= 2.07D-01
 IDIUse=3 WtCom= 7.55D-01 WtEn= 2.45D-01
 Coeff-Com:  0.100D+01
 Coeff-En:   0.100D+01
 Coeff:      0.100D+01
 Gap=     0.061 Goal=   None    Shift=    0.000
 GapD=    0.061 DampG=0.500 DampE=0.500 DampFc=0.2500 IDamp=-1.
 Damping current iteration by 2.50D-01
 RMSDP=5.13D-03 MaxDP=1.13D-01              OVMax= 4.30D-01

 Cycle   2  Pass 0  IDiag  1:
 RMSU=  1.26D-03    CP:  9.89D-01
 E= -384.870500691771     Delta-E=       -0.070724053184 Rises=F Damp=T
 DIIS: error= 1.31D-02 at cycle   2 NSaved=   2.
 NSaved= 2 IEnMin= 2 EnMin= -384.870500691771     IErMin= 2 ErrMin= 1.31D-02
 ErrMax= 1.31D-02  0.00D+00 EMaxC= 1.00D-01 BMatC= 5.71D-02 BMatP= 2.07D-01
 IDIUse=3 WtCom= 8.69D-01 WtEn= 1.31D-01
 Coeff-Com: -0.697D+00 0.170D+01
 Coeff-En:   0.000D+00 0.100D+01
 Coeff:     -0.605D+00 0.161D+01
 Gap=     0.135 Goal=   None    Shift=    0.000
 RMSDP=1.82D-03 MaxDP=5.28D-02 DE=-7.07D-02 OVMax= 4.90D-01

 Cycle   3  Pass 0  IDiag  1:
 RMSU=  1.78D-03    CP:  9.73D-01  1.15D+00
 E= -384.957601221087     Delta-E=       -0.087100529316 Rises=F Damp=F
 DIIS: error= 1.14D-02 at cycle   3 NSaved=   3.
 NSaved= 3 IEnMin= 3 EnMin= -384.957601221087     IErMin= 3 ErrMin= 1.14D-02
 ErrMax= 1.14D-02  0.00D+00 EMaxC= 1.00D-01 BMatC= 5.79D-02 BMatP= 5.71D-02
 IDIUse=3 WtCom= 8.86D-01 WtEn= 1.14D-01
 Coeff-Com: -0.524D+00 0.112D+01 0.401D+00
 Coeff-En:   0.000D+00 0.000D+00 0.100D+01
 Coeff:     -0.464D+00 0.994D+00 0.470D+00
 Gap=     0.140 Goal=   None    Shift=    0.000
 RMSDP=1.47D-03 MaxDP=4.71D-02 DE=-8.71D-02 OVMax= 1.29D-01

 Cycle   4  Pass 0  IDiag  1:
 RMSU=  7.94D-04    CP:  9.77D-01  1.66D+00  4.08D-01
 E= -385.012263668487     Delta-E=       -0.054662447400 Rises=F Damp=F
 DIIS: error= 3.82D-03 at cycle   4 NSaved=   4.
 NSaved= 4 IEnMin= 4 EnMin= -385.012263668487     IErMin= 4 ErrMin= 3.82D-03
 ErrMax= 3.82D-03  0.00D+00 EMaxC= 1.00D-01 BMatC= 5.73D-03 BMatP= 5.71D-02
 IDIUse=3 WtCom= 9.62D-01 WtEn= 3.82D-02
 Coeff-Com: -0.168D+00 0.330D+00 0.252D+00 0.587D+00
 Coeff-En:   0.000D+00 0.000D+00 0.608D-01 0.939D+00
 Coeff:     -0.162D+00 0.317D+00 0.244D+00 0.600D+00
 Gap=     0.125 Goal=   None    Shift=    0.000
 RMSDP=4.31D-04 MaxDP=1.66D-02 DE=-5.47D-02 OVMax= 3.80D-02

 Cycle   5  Pass 0  IDiag  1:
 RMSU=  2.59D-04    CP:  9.77D-01  1.55D+00  5.41D-01  7.46D-01
 E= -385.016727520067     Delta-E=       -0.004463851580 Rises=F Damp=F
 DIIS: error= 1.83D-03 at cycle   5 NSaved=   5.
 NSaved= 5 IEnMin= 5 EnMin= -385.016727520067     IErMin= 5 ErrMin= 1.83D-03
 ErrMax= 1.83D-03  0.00D+00 EMaxC= 1.00D-01 BMatC= 9.62D-04 BMatP= 5.73D-03
 IDIUse=3 WtCom= 9.82D-01 WtEn= 1.83D-02
 Coeff-Com: -0.530D-01 0.855D-01 0.772D-01 0.345D+00 0.546D+00
 Coeff-En:   0.000D+00 0.000D+00 0.000D+00 0.168D+00 0.832D+00
 Coeff:     -0.521D-01 0.839D-01 0.758D-01 0.341D+00 0.551D+00
 Gap=     0.127 Goal=   None    Shift=    0.000
 RMSDP=1.52D-04 MaxDP=7.75D-03 DE=-4.46D-03 OVMax= 1.89D-02

 Cycle   6  Pass 0  IDiag  1:
 RMSU=  8.24D-05    CP:  9.77D-01  1.58D+00  5.21D-01  8.21D-01  6.19D-01
 E= -385.017652969351     Delta-E=       -0.000925449285 Rises=F Damp=F
 DIIS: error= 4.18D-04 at cycle   6 NSaved=   6.
 NSaved= 6 IEnMin= 6 EnMin= -385.017652969351     IErMin= 6 ErrMin= 4.18D-04
 ErrMax= 4.18D-04  0.00D+00 EMaxC= 1.00D-01 BMatC= 7.96D-05 BMatP= 9.62D-04
 IDIUse=3 WtCom= 9.96D-01 WtEn= 4.18D-03
 Coeff-Com: -0.131D-01 0.153D-01 0.102D-01 0.121D+00 0.319D+00 0.548D+00
 Coeff-En:   0.000D+00 0.000D+00 0.000D+00 0.000D+00 0.000D+00 0.100D+01
 Coeff:     -0.131D-01 0.152D-01 0.102D-01 0.120D+00 0.318D+00 0.550D+00
 Gap=     0.126 Goal=   None    Shift=    0.000
 RMSDP=3.93D-05 MaxDP=1.49D-03 DE=-9.25D-04 OVMax= 2.19D-03

 Cycle   7  Pass 0  IDiag  1:
 RMSU=  2.95D-05    CP:  9.77D-01  1.58D+00  5.19D-01  8.28D-01  6.95D-01
                    CP:  8.25D-01
 E= -385.017714824152     Delta-E=       -0.000061854801 Rises=F Damp=F
 DIIS: error= 1.18D-04 at cycle   7 NSaved=   7.
 NSaved= 7 IEnMin= 7 EnMin= -385.017714824152     IErMin= 7 ErrMin= 1.18D-04
 ErrMax= 1.18D-04  0.00D+00 EMaxC= 1.00D-01 BMatC= 7.10D-06 BMatP= 7.96D-05
 IDIUse=3 WtCom= 9.99D-01 WtEn= 1.18D-03
 Coeff-Com: -0.330D-02 0.241D-02-0.457D-02 0.227D-01 0.122D+00 0.292D+00
 Coeff-Com:  0.569D+00
 Coeff-En:   0.000D+00 0.000D+00 0.000D+00 0.000D+00 0.000D+00 0.000D+00
 Coeff-En:   0.100D+01
 Coeff:     -0.330D-02 0.240D-02-0.457D-02 0.226D-01 0.122D+00 0.291D+00
 Coeff:      0.570D+00
 Gap=     0.126 Goal=   None    Shift=    0.000
 RMSDP=1.43D-05 MaxDP=4.85D-04 DE=-6.19D-05 OVMax= 9.05D-04

 Cycle   8  Pass 0  IDiag  1:
 RMSU=  8.96D-06    CP:  9.77D-01  1.58D+00  5.20D-01  8.30D-01  7.08D-01
                    CP:  8.56D-01  6.58D-01
 E= -385.017721101783     Delta-E=       -0.000006277630 Rises=F Damp=F
 DIIS: error= 4.77D-05 at cycle   8 NSaved=   8.
 NSaved= 8 IEnMin= 8 EnMin= -385.017721101783     IErMin= 8 ErrMin= 4.77D-05
 ErrMax= 4.77D-05  0.00D+00 EMaxC= 1.00D-01 BMatC= 7.44D-07 BMatP= 7.10D-06
 IDIUse=1 WtCom= 1.00D+00 WtEn= 0.00D+00
 Coeff-Com: -0.877D-03 0.488D-03-0.341D-02 0.211D-04 0.339D-01 0.746D-01
 Coeff-Com:  0.284D+00 0.611D+00
 Coeff:     -0.877D-03 0.488D-03-0.341D-02 0.211D-04 0.339D-01 0.746D-01
 Coeff:      0.284D+00 0.611D+00
 Gap=     0.126 Goal=   None    Shift=    0.000
 RMSDP=4.93D-06 MaxDP=1.89D-04 DE=-6.28D-06 OVMax= 3.32D-04

 Initial convergence to 1.0D-05 achieved.  Increase integral accuracy.
 Cycle   9  Pass 1  IDiag  1:
 E= -385.017720856598     Delta-E=        0.000000245185 Rises=F Damp=F
 DIIS: error= 1.45D-05 at cycle   1 NSaved=   1.
 NSaved= 1 IEnMin= 1 EnMin= -385.017720856598     IErMin= 1 ErrMin= 1.45D-05
 ErrMax= 1.45D-05  0.00D+00 EMaxC= 1.00D-01 BMatC= 2.04D-07 BMatP= 2.04D-07
 IDIUse=1 WtCom= 1.00D+00 WtEn= 0.00D+00
 Coeff-Com:  0.100D+01
 Coeff:      0.100D+01
 Gap=     0.126 Goal=   None    Shift=    0.000
 RMSDP=4.93D-06 MaxDP=1.89D-04 DE= 2.45D-07 OVMax= 3.01D-04

 Cycle  10  Pass 1  IDiag  1:
 RMSU=  7.27D-06    CP:  1.00D+00
 E= -385.017720757135     Delta-E=        0.000000099464 Rises=F Damp=F
 DIIS: error= 2.72D-05 at cycle   2 NSaved=   2.
 NSaved= 2 IEnMin= 1 EnMin= -385.017720856598     IErMin= 1 ErrMin= 1.45D-05
 ErrMax= 2.72D-05  0.00D+00 EMaxC= 1.00D-01 BMatC= 3.34D-07 BMatP= 2.04D-07
 IDIUse=1 WtCom= 1.00D+00 WtEn= 0.00D+00
 Coeff-Com:  0.570D+00 0.430D+00
 Coeff:      0.570D+00 0.430D+00
 Gap=     0.126 Goal=   None    Shift=    0.000
 RMSDP=2.72D-06 MaxDP=1.38D-04 DE= 9.95D-08 OVMax= 2.45D-04

 Cycle  11  Pass 1  IDiag  1:
 RMSU=  2.42D-06    CP:  1.00D+00  8.28D-01
 E= -385.017721064241     Delta-E=       -0.000000307106 Rises=F Damp=F
 DIIS: error= 8.35D-06 at cycle   3 NSaved=   3.
 NSaved= 3 IEnMin= 3 EnMin= -385.017721064241     IErMin= 3 ErrMin= 8.35D-06
 ErrMax= 8.35D-06  0.00D+00 EMaxC= 1.00D-01 BMatC= 1.54D-08 BMatP= 2.04D-07
 IDIUse=1 WtCom= 1.00D+00 WtEn= 0.00D+00
 Coeff-Com:  0.510D-01 0.180D+00 0.769D+00
 Coeff:      0.510D-01 0.180D+00 0.769D+00
 Gap=     0.126 Goal=   None    Shift=    0.000
 RMSDP=6.52D-07 MaxDP=3.96D-05 DE=-3.07D-07 OVMax= 4.80D-05

 Cycle  12  Pass 1  IDiag  1:
 RMSU=  5.28D-07    CP:  1.00D+00  8.63D-01  8.83D-01
 E= -385.017721074065     Delta-E=       -0.000000009824 Rises=F Damp=F
 DIIS: error= 4.45D-06 at cycle   4 NSaved=   4.
 NSaved= 4 IEnMin= 4 EnMin= -385.017721074065     IErMin= 4 ErrMin= 4.45D-06
 ErrMax= 4.45D-06  0.00D+00 EMaxC= 1.00D-01 BMatC= 5.06D-09 BMatP= 1.54D-08
 IDIUse=1 WtCom= 1.00D+00 WtEn= 0.00D+00
 Coeff-Com: -0.130D-01 0.823D-01 0.491D+00 0.439D+00
 Coeff:     -0.130D-01 0.823D-01 0.491D+00 0.439D+00
 Gap=     0.126 Goal=   None    Shift=    0.000
 RMSDP=2.88D-07 MaxDP=1.72D-05 DE=-9.82D-09 OVMax= 2.04D-05

 Cycle  13  Pass 1  IDiag  1:
 RMSU=  1.56D-07    CP:  1.00D+00  8.70D-01  8.91D-01  5.54D-01
 E= -385.017721078359     Delta-E=       -0.000000004294 Rises=F Damp=F
 DIIS: error= 7.55D-07 at cycle   5 NSaved=   5.
 NSaved= 5 IEnMin= 5 EnMin= -385.017721078359     IErMin= 5 ErrMin= 7.55D-07
 ErrMax= 7.55D-07  0.00D+00 EMaxC= 1.00D-01 BMatC= 1.66D-10 BMatP= 5.06D-09
 IDIUse=1 WtCom= 1.00D+00 WtEn= 0.00D+00
 Coeff-Com: -0.921D-02 0.382D-01 0.236D+00 0.239D+00 0.496D+00
 Coeff:     -0.921D-02 0.382D-01 0.236D+00 0.239D+00 0.496D+00
 Gap=     0.126 Goal=   None    Shift=    0.000
 RMSDP=7.49D-08 MaxDP=3.83D-06 DE=-4.29D-09 OVMax= 9.26D-06

 Cycle  14  Pass 1  IDiag  1:
 RMSU=  6.29D-08    CP:  1.00D+00  8.71D-01  8.91D-01  5.69D-01  7.52D-01
 E= -385.017721078508     Delta-E=       -0.000000000149 Rises=F Damp=F
 DIIS: error= 2.30D-07 at cycle   6 NSaved=   6.
 NSaved= 6 IEnMin= 6 EnMin= -385.017721078508     IErMin= 6 ErrMin= 2.30D-07
 ErrMax= 2.30D-07  0.00D+00 EMaxC= 1.00D-01 BMatC= 2.28D-11 BMatP= 1.66D-10
 IDIUse=1 WtCom= 1.00D+00 WtEn= 0.00D+00
 Coeff-Com: -0.311D-02 0.906D-02 0.548D-01 0.609D-01 0.290D+00 0.589D+00
 Coeff:     -0.311D-02 0.906D-02 0.548D-01 0.609D-01 0.290D+00 0.589D+00
 Gap=     0.126 Goal=   None    Shift=    0.000
 RMSDP=3.19D-08 MaxDP=1.05D-06 DE=-1.49D-10 OVMax= 3.74D-06

 Cycle  15  Pass 1  IDiag  1:
 RMSU=  2.28D-08    CP:  1.00D+00  8.72D-01  8.93D-01  5.71D-01  8.66D-01
                    CP:  8.16D-01
 E= -385.017721078502     Delta-E=        0.000000000006 Rises=F Damp=F
 DIIS: error= 9.28D-08 at cycle   7 NSaved=   7.
 NSaved= 7 IEnMin= 6 EnMin= -385.017721078508     IErMin= 7 ErrMin= 9.28D-08
 ErrMax= 9.28D-08  0.00D+00 EMaxC= 1.00D-01 BMatC= 3.69D-12 BMatP= 2.28D-11
 IDIUse=1 WtCom= 1.00D+00 WtEn= 0.00D+00
 Coeff-Com: -0.530D-03-0.674D-03-0.619D-02-0.323D-02 0.105D+00 0.360D+00
 Coeff-Com:  0.545D+00
 Coeff:     -0.530D-03-0.674D-03-0.619D-02-0.323D-02 0.105D+00 0.360D+00
 Coeff:      0.545D+00
 Gap=     0.126 Goal=   None    Shift=    0.000
 RMSDP=1.30D-08 MaxDP=3.12D-07 DE= 5.91D-12 OVMax= 7.47D-07

 Cycle  16  Pass 1  IDiag  1:
 RMSU=  9.79D-09    CP:  1.00D+00  8.72D-01  8.93D-01  5.74D-01  8.77D-01
                    CP:  8.82D-01  6.91D-01
 E= -385.017721078509     Delta-E=       -0.000000000006 Rises=F Damp=F
 DIIS: error= 3.82D-08 at cycle   8 NSaved=   8.
 NSaved= 8 IEnMin= 8 EnMin= -385.017721078509     IErMin= 8 ErrMin= 3.82D-08
 ErrMax= 3.82D-08  0.00D+00 EMaxC= 1.00D-01 BMatC= 3.45D-13 BMatP= 3.69D-12
 IDIUse=1 WtCom= 1.00D+00 WtEn= 0.00D+00
 Coeff-Com:  0.114D-03-0.116D-02-0.890D-02-0.837D-02 0.170D-01 0.976D-01
 Coeff-Com:  0.272D+00 0.632D+00
 Coeff:      0.114D-03-0.116D-02-0.890D-02-0.837D-02 0.170D-01 0.976D-01
 Coeff:      0.272D+00 0.632D+00
 Gap=     0.126 Goal=   None    Shift=    0.000
 RMSDP=4.84D-09 MaxDP=1.60D-07 DE=-6.14D-12 OVMax= 6.60D-07

 SCF Done:  E(RB3LYP) =  -385.017721079     A.U. after   16 cycles
            NFock= 16  Conv=0.48D-08     -V/T= 2.0092
 KE= 3.814950081406D+02 PE=-1.775270167430D+03 EE= 5.608749982899D+02
 Leave Link  502 at Tue Jun 08 16:24:57 2021, MaxMem=    33554432 cpu:       262.0
 (Enter C:\G09W\l601.exe)
 Copying SCF densities to generalized density rwf, IOpCl= 0 IROHF=0.

 **********************************************************************

            Population analysis using the SCF density.

 **********************************************************************

 Orbital symmetries:
       Occupied  (A) (A) (A) (A) (A) (A) (A) (A) (A) (A) (A) (A)
                 (A) (A) (A) (A) (A) (A) (A) (A) (A) (A) (A) (A)
                 (A) (A) (A) (A) (A) (A) (A) (A) (A) (A) (A)
       Virtual   (A) (A) (A) (A) (A) (A) (A) (A) (A) (A) (A) (A)
                 (A) (A) (A) (A) (A) (A) (A) (A) (A) (A) (A) (A)
                 (A) (A) (A) (A) (A) (A) (A) (A) (A) (A) (A) (A)
                 (A) (A) (A) (A) (A) (A) (A) (A) (A) (A) (A) (A)
                 (A) (A) (A) (A) (A) (A) (A) (A) (A) (A) (A) (A)
                 (A) (A) (A) (A) (A) (A) (A) (A) (A) (A) (A) (A)
                 (A) (A) (A) (A) (A) (A) (A) (A) (A) (A) (A) (A)
                 (A) (A) (A) (A) (A) (A) (A) (A) (A) (A) (A) (A)
                 (A) (A) (A) (A) (A) (A) (A) (A) (A) (A) (A) (A)
                 (A) (A) (A) (A) (A) (A) (A) (A) (A) (A) (A) (A)
                 (A) (A) (A) (A) (A) (A) (A) (A) (A) (A) (A) (A)
                 (A) (A) (A) (A) (A) (A) (A) (A) (A) (A) (A) (A)
                 (A) (A) (A) (A) (A) (A) (A) (A) (A) (A) (A) (A)
                 (A) (A) (A) (A) (A) (A) (A) (A) (A) (A) (A) (A)
                 (A) (A) (A) (A) (A) (A) (A)
 The electronic state is 1-A.
 Alpha  occ. eigenvalues --  -14.59836 -14.48384 -10.45059 -10.39860 -10.38755
 Alpha  occ. eigenvalues --  -10.38671 -10.36867 -10.32506 -10.31887  -1.17524
 Alpha  occ. eigenvalues --   -1.06756  -0.95509  -0.92018  -0.89912  -0.83731
 Alpha  occ. eigenvalues --   -0.79812  -0.75219  -0.73296  -0.68929  -0.67713
 Alpha  occ. eigenvalues --   -0.66013  -0.61663  -0.60923  -0.58958  -0.58775
 Alpha  occ. eigenvalues --   -0.58231  -0.57168  -0.56213  -0.54370  -0.52203
 Alpha  occ. eigenvalues --   -0.51373  -0.50259  -0.49423  -0.43582  -0.36422
 Alpha virt. eigenvalues --   -0.23807  -0.12486  -0.06944  -0.05499  -0.04829
 Alpha virt. eigenvalues --   -0.02848  -0.01701  -0.00667  -0.00394   0.01398
 Alpha virt. eigenvalues --    0.01819   0.02555   0.02957   0.03561   0.04373
 Alpha virt. eigenvalues --    0.05125   0.05990   0.07195   0.08166   0.09471
 Alpha virt. eigenvalues --    0.11793   0.11886   0.15431   0.18769   0.22365
 Alpha virt. eigenvalues --    0.31315   0.32330   0.33378   0.35960   0.36991
 Alpha virt. eigenvalues --    0.38938   0.39769   0.39932   0.40848   0.43084
 Alpha virt. eigenvalues --    0.44859   0.44967   0.47289   0.48785   0.51279
 Alpha virt. eigenvalues --    0.54249   0.55235   0.58829   0.62133   0.63348
 Alpha virt. eigenvalues --    0.64387   0.65976   0.66180   0.66523   0.68247
 Alpha virt. eigenvalues --    0.69592   0.70251   0.71336   0.72649   0.74677
 Alpha virt. eigenvalues --    0.74958   0.77531   0.77906   0.78264   0.78678
 Alpha virt. eigenvalues --    0.80201   0.81380   0.83364   0.83736   0.85605
 Alpha virt. eigenvalues --    0.88055   0.88757   0.96255   1.00869   1.07798
 Alpha virt. eigenvalues --    1.09597   1.12468   1.13753   1.14894   1.15596
 Alpha virt. eigenvalues --    1.16859   1.18470   1.23058   1.27686   1.33337
 Alpha virt. eigenvalues --    1.35391   1.42435   1.46899   1.48944   1.54049
 Alpha virt. eigenvalues --    1.58693   1.60432   1.62232   1.64459   1.66331
 Alpha virt. eigenvalues --    1.70108   1.72167   1.74804   1.75896   1.77882
 Alpha virt. eigenvalues --    1.79899   1.80872   1.84140   1.85905   1.86833
 Alpha virt. eigenvalues --    1.87450   1.89098   1.90973   1.91226   1.92429
 Alpha virt. eigenvalues --    1.93411   1.94584   1.95355   1.97028   1.98579
 Alpha virt. eigenvalues --    1.99199   1.99592   2.02127   2.03759   2.06964
 Alpha virt. eigenvalues --    2.13089   2.13814   2.15202   2.18538   2.19073
 Alpha virt. eigenvalues --    2.26606   2.26775   2.29848   2.33850   2.35949
 Alpha virt. eigenvalues --    2.37655   2.39527   2.40819   2.42388   2.45790
 Alpha virt. eigenvalues --    2.47787   2.48813   2.49549   2.53116   2.54675
 Alpha virt. eigenvalues --    2.54884   2.58868   2.60076   2.63207   2.64534
 Alpha virt. eigenvalues --    2.67067   2.70039   2.73241   2.75119   2.78282
 Alpha virt. eigenvalues --    2.80954   2.82870   2.84438   2.90587   2.91863
 Alpha virt. eigenvalues --    2.93440   3.07850   3.10702   3.13298   3.16755
 Alpha virt. eigenvalues --    3.22922   3.28505   3.29172   3.29954   3.31214
 Alpha virt. eigenvalues --    3.32293   3.32757   3.35693   3.39076   3.40522
 Alpha virt. eigenvalues --    3.44769   3.83276   3.96226   3.98463   4.13705
 Alpha virt. eigenvalues --    4.29931   4.31101   4.36456   4.38539   4.45198
          Condensed to atoms (all electrons):
               1          2          3          4          5          6
     1  C    4.960383   0.565446   0.374632  -0.069968   0.395687  -0.032592
     2  C    0.565446   4.780694  -0.023523   0.368913  -0.017575  -0.001884
     3  H    0.374632  -0.023523   0.539417   0.005596  -0.039237   0.002605
     4  H   -0.069968   0.368913   0.005596   0.594263  -0.002137   0.003898
     5  C    0.395687  -0.017575  -0.039237  -0.002137   4.751497   0.383104
     6  H   -0.032592  -0.001884   0.002605   0.003898   0.383104   0.497911
     7  N   -0.036646   0.001548  -0.004693   0.000128   0.444385  -0.039598
     8  N   -0.053234   0.327577   0.001188  -0.043547   0.002648  -0.000020
     9  C    0.004276  -0.041510   0.000128  -0.004821  -0.000165   0.000002
    10  H    0.000145  -0.000944  -0.000025  -0.000739  -0.000011  -0.000002
    11  H   -0.000212   0.004477  -0.000011  -0.000101   0.000002   0.000000
    12  H    0.000061  -0.012193   0.000046   0.010404   0.000031   0.000004
    13  C   -0.006942  -0.045575   0.000145   0.000731  -0.000191  -0.000003
    14  H   -0.000109  -0.012933   0.000230   0.005101   0.000120   0.000007
    15  H    0.000116   0.005720  -0.000111  -0.000309   0.000000   0.000000
    16  H    0.002483   0.000001   0.000526  -0.000353  -0.000201   0.000000
    17  C   -0.006588   0.001258  -0.001285   0.000019  -0.056701   0.003598
    18  H    0.000070  -0.000012   0.000419   0.000002  -0.001264  -0.000113
    19  H    0.006288   0.001085  -0.002357  -0.000037  -0.013610  -0.000098
    20  H    0.000295  -0.000031   0.000252   0.000000   0.004218  -0.000134
    21  C    0.003550  -0.000051  -0.000084  -0.000003  -0.043291  -0.004509
    22  H   -0.000060   0.000005  -0.000005  -0.000002  -0.002549   0.000427
    23  H    0.000217  -0.000002   0.000006   0.000006  -0.002973   0.003245
    24  H   -0.000182   0.000002   0.000005   0.000000   0.002377   0.000104
               7          8          9         10         11         12
     1  C   -0.036646  -0.053234   0.004276   0.000145  -0.000212   0.000061
     2  C    0.001548   0.327577  -0.041510  -0.000944   0.004477  -0.012193
     3  H   -0.004693   0.001188   0.000128  -0.000025  -0.000011   0.000046
     4  H    0.000128  -0.043547  -0.004821  -0.000739  -0.000101   0.010404
     5  C    0.444385   0.002648  -0.000165  -0.000011   0.000002   0.000031
     6  H   -0.039598  -0.000020   0.000002  -0.000002   0.000000   0.000004
     7  N    6.643078  -0.000046   0.000001   0.000000   0.000000   0.000000
     8  N   -0.000046   6.851377   0.283875  -0.035635  -0.030329  -0.048397
     9  C    0.000001   0.283875   4.836579   0.395637   0.398468   0.376405
    10  H    0.000000  -0.035635   0.395637   0.555869  -0.023259  -0.036678
    11  H    0.000000  -0.030329   0.398468  -0.023259   0.531834  -0.032542
    12  H    0.000000  -0.048397   0.376405  -0.036678  -0.032542   0.618357
    13  C    0.000005   0.291240  -0.056750   0.005226  -0.004125  -0.004359
    14  H   -0.000001  -0.050709  -0.006927  -0.000187  -0.001011   0.012639
    15  H    0.000000  -0.033603  -0.002702   0.000103   0.004417  -0.001722
    16  H    0.000002  -0.036944   0.005624  -0.000287   0.000063  -0.000224
    17  C    0.269751   0.000012   0.000000   0.000000   0.000000   0.000000
    18  H   -0.034562   0.000003   0.000000   0.000000   0.000000   0.000000
    19  H   -0.026509  -0.000136   0.000000   0.000001   0.000000   0.000000
    20  H   -0.032261   0.000000   0.000000   0.000000   0.000000   0.000000
    21  C    0.263390   0.000000   0.000000   0.000000   0.000000   0.000000
    22  H   -0.035073   0.000000   0.000000   0.000000   0.000000   0.000000
    23  H   -0.031858   0.000000   0.000000   0.000000   0.000000   0.000000
    24  H   -0.029943   0.000000   0.000000   0.000000   0.000000   0.000000
              13         14         15         16         17         18
     1  C   -0.006942  -0.000109   0.000116   0.002483  -0.006588   0.000070
     2  C   -0.045575  -0.012933   0.005720   0.000001   0.001258  -0.000012
     3  H    0.000145   0.000230  -0.000111   0.000526  -0.001285   0.000419
     4  H    0.000731   0.005101  -0.000309  -0.000353   0.000019   0.000002
     5  C   -0.000191   0.000120   0.000000  -0.000201  -0.056701  -0.001264
     6  H   -0.000003   0.000007   0.000000   0.000000   0.003598  -0.000113
     7  N    0.000005  -0.000001   0.000000   0.000002   0.269751  -0.034562
     8  N    0.291240  -0.050709  -0.033603  -0.036944   0.000012   0.000003
     9  C   -0.056750  -0.006927  -0.002702   0.005624   0.000000   0.000000
    10  H    0.005226  -0.000187   0.000103  -0.000287   0.000000   0.000000
    11  H   -0.004125  -0.001011   0.004417   0.000063   0.000000   0.000000
    12  H   -0.004359   0.012639  -0.001722  -0.000224   0.000000   0.000000
    13  C    4.826542   0.384816   0.397757   0.389441  -0.000007  -0.000001
    14  H    0.384816   0.622687  -0.037352  -0.037212   0.000000   0.000000
    15  H    0.397757  -0.037352   0.534074  -0.022238   0.000000   0.000000
    16  H    0.389441  -0.037212  -0.022238   0.571627  -0.000001   0.000002
    17  C   -0.000007   0.000000   0.000000  -0.000001   4.848984   0.395177
    18  H   -0.000001   0.000000   0.000000   0.000002   0.395177   0.503533
    19  H    0.000009  -0.000001   0.000000  -0.000001   0.391113  -0.029787
    20  H    0.000000   0.000000   0.000000   0.000000   0.392122  -0.026006
    21  C    0.000000   0.000000   0.000000   0.000000  -0.034276  -0.000115
    22  H    0.000000   0.000000   0.000000   0.000000   0.000274  -0.000228
    23  H    0.000000   0.000000   0.000000   0.000000   0.003039  -0.000105
    24  H    0.000000   0.000000   0.000000   0.000000  -0.001341   0.001485
              19         20         21         22         23         24
     1  C    0.006288   0.000295   0.003550  -0.000060   0.000217  -0.000182
     2  C    0.001085  -0.000031  -0.000051   0.000005  -0.000002   0.000002
     3  H   -0.002357   0.000252  -0.000084  -0.000005   0.000006   0.000005
     4  H   -0.000037   0.000000  -0.000003  -0.000002   0.000006   0.000000
     5  C   -0.013610   0.004218  -0.043291  -0.002549  -0.002973   0.002377
     6  H   -0.000098  -0.000134  -0.004509   0.000427   0.003245   0.000104
     7  N   -0.026509  -0.032261   0.263390  -0.035073  -0.031858  -0.029943
     8  N   -0.000136   0.000000   0.000000   0.000000   0.000000   0.000000
     9  C    0.000000   0.000000   0.000000   0.000000   0.000000   0.000000
    10  H    0.000001   0.000000   0.000000   0.000000   0.000000   0.000000
    11  H    0.000000   0.000000   0.000000   0.000000   0.000000   0.000000
    12  H    0.000000   0.000000   0.000000   0.000000   0.000000   0.000000
    13  C    0.000009   0.000000   0.000000   0.000000   0.000000   0.000000
    14  H   -0.000001   0.000000   0.000000   0.000000   0.000000   0.000000
    15  H    0.000000   0.000000   0.000000   0.000000   0.000000   0.000000
    16  H   -0.000001   0.000000   0.000000   0.000000   0.000000   0.000000
    17  C    0.391113   0.392122  -0.034276   0.000274   0.003039  -0.001341
    18  H   -0.029787  -0.026006  -0.000115  -0.000228  -0.000105   0.001485
    19  H    0.516154  -0.021591   0.003150  -0.000008  -0.000180   0.000012
    20  H   -0.021591   0.505080  -0.001627   0.001351   0.000062  -0.000293
    21  C    0.003150  -0.001627   4.844618   0.392783   0.395190   0.393750
    22  H   -0.000008   0.001351   0.392783   0.503519  -0.026294  -0.026761
    23  H   -0.000180   0.000062   0.395190  -0.026294   0.508227  -0.022399
    24  H    0.000012  -0.000293   0.393750  -0.026761  -0.022399   0.503096
 Mulliken charges:
               1
     1  C   -0.107118
     2  C    0.099507
     3  H    0.146136
     4  H    0.132954
     5  C    0.195832
     6  H    0.184047
     7  N   -0.351097
     8  N   -0.425319
     9  C   -0.188119
    10  H    0.140786
    11  H    0.152330
    12  H    0.118169
    13  C   -0.177960
    14  H    0.120841
    15  H    0.155850
    16  H    0.127694
    17  C   -0.205149
    18  H    0.191501
    19  H    0.176504
    20  H    0.178562
    21  C   -0.212474
    22  H    0.192619
    23  H    0.173818
    24  H    0.180087
 Sum of Mulliken charges =   1.00000
 Mulliken charges with hydrogens summed into heavy atoms:
               1
     1  C    0.039017
     2  C    0.232461
     5  C    0.379879
     7  N   -0.351097
     8  N   -0.425319
     9  C    0.223167
    13  C    0.226426
    17  C    0.341418
    21  C    0.334050
 Electronic spatial extent (au):  <R**2>=           2102.6513
 Charge=              1.0000 electrons
 Dipole moment (field-independent basis, Debye):
    X=             -5.0547    Y=             -0.9262    Z=              0.8481  Tot=              5.2084
 Quadrupole moment (field-independent basis, Debye-Ang):
   XX=            -11.4457   YY=            -45.7544   ZZ=            -53.3516
   XY=             -0.6223   XZ=              0.9886   YZ=             -1.5063
 Traceless Quadrupole moment (field-independent basis, Debye-Ang):
   XX=             25.4049   YY=             -8.9038   ZZ=            -16.5010
   XY=             -0.6223   XZ=              0.9886   YZ=             -1.5063
 Octapole moment (field-independent basis, Debye-Ang**2):
  XXX=            -54.3316  YYY=              1.2487  ZZZ=             -0.4440  XYY=            -11.9087
  XXY=             -4.4071  XXZ=              1.8411  XZZ=             -4.6821  YZZ=             -0.7204
  YYZ=              1.6945  XYZ=              9.4840
 Hexadecapole moment (field-independent basis, Debye-Ang**3):
 XXXX=          -1673.9959 YYYY=           -275.2041 ZZZZ=           -161.5292 XXXY=             29.6044
 XXXZ=            -20.1105 YYYX=             -0.5755 YYYZ=             -4.9242 ZZZX=             -0.1782
 ZZZY=             -2.5509 XXYY=           -370.5307 XXZZ=           -382.5995 YYZZ=            -68.6832
 XXYZ=             -0.0882 YYXZ=              2.1249 ZZXY=             -2.4300
 N-N= 4.478824399207D+02 E-N=-1.775270171025D+03  KE= 3.814950081406D+02
 No NMR shielding tensors so no spin-rotation constants.
 Leave Link  601 at Tue Jun 08 16:24:58 2021, MaxMem=    33554432 cpu:         0.0
 (Enter C:\G09W\l701.exe)
 Compute integral first derivatives.
 ... and contract with generalized density number  0.
 Leave Link  701 at Tue Jun 08 16:24:59 2021, MaxMem=    33554432 cpu:         0.0
 (Enter C:\G09W\l702.exe)
 L702 exits ... SP integral derivatives will be done elsewhere.
 Leave Link  702 at Tue Jun 08 16:25:00 2021, MaxMem=    33554432 cpu:         0.0
 (Enter C:\G09W\l703.exe)
 Compute integral first derivatives, UseDBF=F ICtDFT=           0.
 Integral derivatives from FoFJK, PRISM(SPDF).
 Calling FoFJK, ICntrl=      2127 FMM=F ISym2X=0 I1Cent= 0 IOpClX= 0 NMat=1 NMatS=1 NMatT=0.
 FoFJK:  IHMeth= 1 ICntrl=    2127 DoSepK=F KAlg= 0 I1Cent=   0 FoldK=F
 IRaf=         0 NMat=   1 IRICut=       1 DoRegI=T DoRafI=F ISym2E= 0.
 FoFCou: FMM=F IPFlag=           0 FMFlag=      100000 FMFlg1=         800
         NFxFlg=           0 DoJE=F BraDBF=F KetDBF=F FulRan=T
         wScrn=  0.000000 ICntrl=    2127 IOpCl=  0 I1Cent=           0 NGrid=           0
         NMat0=    1 NMatS0=      1 NMatT0=    0 NMatD0=    1 NMtDS0=    0 NMtDT0=    0
 Symmetry not used in FoFCou.
 Leave Link  703 at Tue Jun 08 16:25:30 2021, MaxMem=    33554432 cpu:        30.0
 (Enter C:\G09W\l716.exe)
 Dipole        =-1.98868086D+00-3.64412586D-01 3.33665819D-01
 ***** Axes restored to original set *****
 -------------------------------------------------------------------
 Center     Atomic                   Forces (Hartrees/Bohr)
 Number     Number              X              Y              Z
 -------------------------------------------------------------------
      1        6           0.061224246    0.004749494   -0.008840601
      2        6          -0.050352640   -0.006285898   -0.002617348
      3        1          -0.005630627   -0.001585866   -0.000512652
      4        1           0.010616108    0.009084661    0.011894834
      5        6          -0.078116327   -0.007762264    0.030689271
      6        1           0.010065024    0.002682435    0.004841387
      7        7           0.004708768    0.000645698    0.000427115
      8        7           0.042534917    0.007887901   -0.016762340
      9        6           0.002150919   -0.007285697   -0.014871429
     10        1           0.000687683    0.014865520   -0.004070195
     11        1          -0.013564327   -0.000223222    0.006311038
     12        1           0.013473664   -0.001124696    0.018160148
     13        6           0.000136155    0.007141617   -0.011178723
     14        1           0.011813725   -0.009943933    0.014897859
     15        1          -0.014005886    0.000124882    0.006147423
     16        1          -0.001497884   -0.011716513   -0.010205135
     17        6           0.010845920    0.005260232   -0.001975563
     18        1          -0.001749588   -0.016860669   -0.000188837
     19        1          -0.008358476    0.006104131   -0.001546913
     20        1           0.002690680    0.004395940   -0.013601936
     21        6          -0.010065228   -0.001561278    0.002151748
     22        1           0.002024918    0.014980023   -0.007518404
     23        1           0.010545598   -0.003643046    0.008875894
     24        1          -0.000177345   -0.009929452   -0.010506644
 -------------------------------------------------------------------
 Cartesian Forces:  Max     0.078116327 RMS     0.016726632
 Leave Link  716 at Tue Jun 08 16:25:30 2021, MaxMem=    33554432 cpu:         0.0
 (Enter C:\G09W\l103.exe)

 GradGradGradGradGradGradGradGradGradGradGradGradGradGradGradGradGradGrad
 Berny optimization.
 FormGI is forming the generalized inverse of G from B-inverse, IUseBI=4.
 Internal  Forces:  Max     0.056384745 RMS     0.011917826
 Search for a local minimum.
 Step number   1 out of a maximum of  112
 All quantities printed in internal units (Hartrees-Bohrs-Radians)
 RMS Force = .11918D-01 SwitMx=.10000D-02 MixMth= 1
 Mixed Optimization -- RFO/linear search
 Second derivative matrix not updated -- first step.
 ITU=  0
     Eigenvalues ---    0.00237   0.00766   0.00766   0.00766   0.00766
     Eigenvalues ---    0.00766   0.01349   0.01459   0.01668   0.01724
     Eigenvalues ---    0.02681   0.03099   0.03454   0.07537   0.07537
     Eigenvalues ---    0.07537   0.07537   0.07537   0.07537   0.07537
     Eigenvalues ---    0.07537   0.16000   0.16000   0.16000   0.16000
     Eigenvalues ---    0.16000   0.16000   0.16000   0.16000   0.16000
     Eigenvalues ---    0.16000   0.16000   0.16000   0.16000   0.16000
     Eigenvalues ---    0.16000   0.16276   0.17820   0.22000   0.22000
     Eigenvalues ---    0.22000   0.25000   0.25000   0.28519   0.35740
     Eigenvalues ---    0.35740   0.35740   0.35740   0.35740   0.37230
     Eigenvalues ---    0.37230   0.37230   0.37230   0.37230   0.37230
     Eigenvalues ---    0.37230   0.37230   0.37230   0.37230   0.37230
     Eigenvalues ---    0.37230   0.37230   0.37230   0.37230   0.53930
     Eigenvalues ---    0.69002
 RFO step:  Lambda=-4.51661394D-02 EMin= 2.36824174D-03
 Linear search not attempted -- first point.
 Maximum step size (   0.300) exceeded in Quadratic search.
    -- Step size scaled by   0.815
 Iteration  1 RMS(Cart)=  0.15938833 RMS(Int)=  0.00704702
 Iteration  2 RMS(Cart)=  0.01728346 RMS(Int)=  0.00017094
 Iteration  3 RMS(Cart)=  0.00018732 RMS(Int)=  0.00015701
 Iteration  4 RMS(Cart)=  0.00000002 RMS(Int)=  0.00015701
 ITry= 1 IFail=0 DXMaxC= 7.87D-01 DCOld= 1.00D+10 DXMaxT= 3.00D-01 DXLimC= 3.00D+00 Rises=F
 Variable       Old X    -DE/DX   Delta X   Delta X   Delta X     New X
                                 (Linear)    (Quad)   (Total)
    R1        2.56096  -0.00182   0.00000  -0.00253  -0.00253   2.55842
    R2        2.02201   0.00531   0.00000   0.01037   0.01037   2.03237
    R3        2.91018  -0.05638   0.00000  -0.13902  -0.13902   2.77116
    R4        2.02201   0.01696   0.00000   0.03309   0.03309   2.05509
    R5        2.77790  -0.04220   0.00000  -0.08538  -0.08538   2.69252
    R6        2.02201   0.01143   0.00000   0.02231   0.02231   2.04432
    R7        2.44455   0.02400   0.00000   0.02659   0.02659   2.47114
    R8        2.77790   0.00614   0.00000   0.01241   0.01241   2.79031
    R9        2.77790   0.00536   0.00000   0.01084   0.01084   2.78874
   R10        2.77790   0.00827   0.00000   0.01674   0.01674   2.79463
   R11        2.77790   0.01371   0.00000   0.02775   0.02775   2.80564
   R12        2.02201   0.01526   0.00000   0.02978   0.02978   2.05178
   R13        2.02201   0.01493   0.00000   0.02913   0.02913   2.05114
   R14        2.02201   0.02172   0.00000   0.04239   0.04239   2.06439
   R15        2.02201   0.02052   0.00000   0.04004   0.04004   2.06205
   R16        2.02201   0.01523   0.00000   0.02972   0.02972   2.05172
   R17        2.02201   0.01538   0.00000   0.03001   0.03001   2.05202
   R18        2.02201   0.01693   0.00000   0.03303   0.03303   2.05504
   R19        2.02201   0.00870   0.00000   0.01697   0.01697   2.03898
   R20        2.02201   0.01448   0.00000   0.02825   0.02825   2.05026
   R21        2.02201   0.01679   0.00000   0.03277   0.03277   2.05477
   R22        2.02201   0.01425   0.00000   0.02780   0.02780   2.04981
   R23        2.02201   0.01444   0.00000   0.02818   0.02818   2.05018
    A1        2.09440   0.00058   0.00000  -0.00044  -0.00045   2.09395
    A2        2.09440  -0.00607   0.00000  -0.01865  -0.01865   2.07574
    A3        2.09440   0.00550   0.00000   0.01909   0.01908   2.11348
    A4        2.09440   0.00328   0.00000   0.01477   0.01476   2.10916
    A5        2.09440   0.00390   0.00000   0.01198   0.01197   2.10637
    A6        2.09440  -0.00718   0.00000  -0.02675  -0.02675   2.06764
    A7        2.09440  -0.02014   0.00000  -0.06090  -0.06090   2.03349
    A8        2.09440   0.04245   0.00000   0.13039   0.13038   2.22477
    A9        2.09440  -0.02231   0.00000  -0.06949  -0.06950   2.02489
   A10        2.09440   0.03245   0.00000   0.08955   0.08955   2.18394
   A11        2.09440  -0.00830   0.00000  -0.02290  -0.02290   2.07150
   A12        2.09440  -0.02415   0.00000  -0.06665  -0.06665   2.02775
   A13        1.91063  -0.00095   0.00000   0.00853   0.00771   1.91835
   A14        1.91063   0.00282   0.00000   0.02329   0.02275   1.93338
   A15        1.91063   0.00385   0.00000   0.02534   0.02484   1.93547
   A16        1.91063   0.00102   0.00000   0.00386   0.00362   1.91425
   A17        1.91063  -0.00322   0.00000  -0.01566  -0.01565   1.89498
   A18        1.91063   0.00970   0.00000   0.04154   0.04139   1.95203
   A19        1.91063  -0.00163   0.00000  -0.01258  -0.01266   1.89797
   A20        1.91063  -0.00279   0.00000  -0.00532  -0.00570   1.90493
   A21        1.91063  -0.00307   0.00000  -0.01184  -0.01174   1.89889
   A22        1.91063   0.00941   0.00000   0.04016   0.03999   1.95062
   A23        1.91063  -0.00407   0.00000  -0.01899  -0.01893   1.89170
   A24        1.91063   0.00242   0.00000   0.00960   0.00934   1.91997
   A25        1.91063  -0.00268   0.00000  -0.01067  -0.01052   1.90011
   A26        1.91063  -0.00339   0.00000  -0.00782  -0.00829   1.90234
   A27        1.91063  -0.00168   0.00000  -0.01229  -0.01232   1.89832
   A28        1.91063  -0.00006   0.00000   0.00136   0.00119   1.91182
   A29        1.91063   0.00612   0.00000   0.02635   0.02628   1.93691
   A30        1.91063  -0.00389   0.00000  -0.01908  -0.01906   1.89157
   A31        1.91063   0.00024   0.00000   0.00824   0.00800   1.91863
   A32        1.91063   0.00012   0.00000  -0.00364  -0.00373   1.90691
   A33        1.91063  -0.00253   0.00000  -0.01322  -0.01310   1.89753
   A34        1.91063   0.00062   0.00000   0.00301   0.00300   1.91363
   A35        1.91063   0.00051   0.00000   0.00265   0.00264   1.91327
   A36        1.91063  -0.00100   0.00000  -0.00512  -0.00512   1.90551
   A37        1.91063   0.00048   0.00000   0.00423   0.00422   1.91485
   A38        1.91063  -0.00036   0.00000  -0.00267  -0.00267   1.90796
   A39        1.91063  -0.00025   0.00000  -0.00210  -0.00210   1.90853
    D1        3.14159   0.00061   0.00000   0.00665   0.00670  -3.13489
    D2        0.00000   0.00019   0.00000   0.00126   0.00125   0.00125
    D3        0.00000   0.00109   0.00000   0.01320   0.01321   0.01321
    D4       -3.14159   0.00067   0.00000   0.00780   0.00775  -3.13384
    D5        0.00000   0.00075   0.00000   0.01241   0.01240   0.01240
    D6        3.14159   0.00012   0.00000   0.00408   0.00405  -3.13754
    D7       -3.14159   0.00123   0.00000   0.01895   0.01898  -3.12261
    D8        0.00000   0.00060   0.00000   0.01062   0.01063   0.01063
    D9       -2.61799   0.00004   0.00000  -0.01975  -0.01976  -2.63776
   D10        1.57080  -0.00582   0.00000  -0.07027  -0.07032   1.50047
   D11        0.52360  -0.00037   0.00000  -0.02514  -0.02509   0.49851
   D12       -1.57080  -0.00623   0.00000  -0.07566  -0.07565  -1.64645
   D13        0.00000   0.00170   0.00000   0.01903   0.01902   0.01902
   D14       -3.14159   0.00169   0.00000   0.01888   0.01886  -3.12273
   D15       -3.14159   0.00107   0.00000   0.01070   0.01071  -3.13088
   D16        0.00000   0.00106   0.00000   0.01055   0.01055   0.01055
   D17       -1.57080  -0.00077   0.00000   0.00622   0.00615  -1.56465
   D18        0.52360   0.00323   0.00000   0.03328   0.03342   0.55702
   D19        2.61799   0.00149   0.00000   0.02153   0.02145   2.63944
   D20        1.57080  -0.00076   0.00000   0.00637   0.00630   1.57710
   D21       -2.61799   0.00324   0.00000   0.03343   0.03357  -2.58442
   D22       -0.52360   0.00151   0.00000   0.02168   0.02160  -0.50200
   D23       -1.57080  -0.00130   0.00000  -0.01441  -0.01442  -1.58522
   D24        0.52360  -0.00002   0.00000  -0.00576  -0.00576   0.51784
   D25        2.61799  -0.00062   0.00000  -0.00985  -0.00985   2.60814
   D26        1.57080  -0.00131   0.00000  -0.01456  -0.01457   1.55623
   D27       -2.61799  -0.00003   0.00000  -0.00591  -0.00590  -2.62389
   D28       -0.52360  -0.00064   0.00000  -0.01000  -0.00999  -0.53359
   D29        1.04720  -0.00064   0.00000  -0.01294  -0.01286   1.03434
   D30        3.14159  -0.00399   0.00000  -0.03557  -0.03553   3.10606
   D31       -1.04720  -0.00379   0.00000  -0.03423  -0.03445  -1.08165
   D32        3.14159   0.00459   0.00000   0.03632   0.03647  -3.10512
   D33       -1.04720   0.00124   0.00000   0.01369   0.01379  -1.03340
   D34        1.04720   0.00144   0.00000   0.01504   0.01488   1.06208
   D35        1.04720   0.00287   0.00000   0.03290   0.03334   1.08053
   D36        3.14159   0.00286   0.00000   0.03281   0.03292  -3.10867
   D37       -1.04720  -0.00022   0.00000   0.01201   0.01203  -1.03517
   D38       -1.04720  -0.00005   0.00000  -0.00732  -0.00727  -1.05446
   D39        1.04720  -0.00007   0.00000  -0.00742  -0.00768   1.03952
   D40        3.14159  -0.00314   0.00000  -0.02821  -0.02858   3.11302
         Item               Value     Threshold  Converged?
 Maximum Force            0.056385     0.000450     NO 
 RMS     Force            0.011918     0.000300     NO 
 Maximum Displacement     0.787249     0.001800     NO 
 RMS     Displacement     0.169241     0.001200     NO 
 Predicted change in Energy=-2.440792D-02
 Lowest energy point so far.  Saving SCF results.
 GradGradGradGradGradGradGradGradGradGradGradGradGradGradGradGradGradGrad

 Leave Link  103 at Tue Jun 08 16:25:30 2021, MaxMem=    33554432 cpu:         0.0
 (Enter C:\G09W\l202.exe)
                          Input orientation:                          
 ---------------------------------------------------------------------
 Center     Atomic      Atomic             Coordinates (Angstroms)
 Number     Number       Type             X           Y           Z
 ---------------------------------------------------------------------
      1          6           0       -0.086414    0.028711    0.027341
      2          6           0       -0.076459    0.331876    1.346783
      3          1           0       -1.007285   -0.250727   -0.452845
      4          1           0        0.845441    0.622204    1.845264
      5          6           0        1.172967    0.081040   -0.722090
      6          1           0        2.057342    0.353500   -0.161777
      7          7           0        1.354060   -0.172548   -1.992091
      8          7           0       -1.276794    0.283960    2.112948
      9          6           0       -1.201547    1.252355    3.228101
     10          1           0       -1.057926    2.253701    2.833707
     11          1           0       -2.138895    1.223830    3.774629
     12          1           0       -0.385807    1.017750    3.915802
     13          6           0       -1.523370   -1.089472    2.620065
     14          1           0       -0.726000   -1.424259    3.285509
     15          1           0       -2.460822   -1.089145    3.167770
     16          1           0       -1.604701   -1.783394    1.788803
     17          6           0        0.289552   -0.548982   -2.943603
     18          1           0        0.176739   -1.630544   -2.953924
     19          1           0       -0.647382   -0.083988   -2.678773
     20          1           0        0.579244   -0.209969   -3.932675
     21          6           0        2.719467   -0.082823   -2.544734
     22          1           0        2.898825    0.923970   -2.914200
     23          1           0        3.441741   -0.323049   -1.771940
     24          1           0        2.819988   -0.788493   -3.362630
 ---------------------------------------------------------------------
                    Distance matrix (angstroms):
                    1          2          3          4          5
     1  C    0.000000
     2  C    1.353859   0.000000
     3  H    1.075485   2.108204   0.000000
     4  H    2.127306   1.087508   3.078296   0.000000
     5  C    1.466434   2.429860   2.221725   2.644133   0.000000
     6  H    2.176452   2.613298   3.137156   2.359897   1.081806
     7  N    2.488690   3.667275   2.819812   3.951660   1.307671
     8  N    2.414935   1.424819   2.634733   2.165628   3.752326
     9  C    3.603566   2.377491   3.980748   2.549410   4.755451
    10  H    3.710809   2.620617   4.132329   2.694737   4.726630
    11  H    4.436569   3.308120   4.618051   3.604256   5.700428
    12  H    4.023426   2.676934   4.591333   2.441220   4.981691
    13  C    3.168184   2.394791   3.226858   3.023478   4.450880
    14  H    3.624341   2.695287   3.928306   2.954953   4.683253
    15  H    4.092640   3.319711   3.990559   3.950837   5.450208
    16  H    2.948163   2.646747   2.780460   3.434135   4.182838
    17  C    3.049851   4.395144   2.823937   4.961244   2.472341
    18  H    3.422034   4.734055   3.092119   5.343617   2.983801
    19  H    2.765943   4.087053   2.260993   4.816030   2.677595
    20  H    4.022661   5.347543   3.824651   5.843625   3.277964
    21  C    3.808016   4.809686   4.277017   4.825051   2.395943
    22  H    4.285535   5.230570   4.764019   5.192296   2.914526
    23  H    3.976057   4.746903   4.641021   4.551751   2.532352
    24  H    4.539483   5.641206   4.837775   5.745526   3.231287
                    6          7          8          9         10
     6  H    0.000000
     7  N    2.030119   0.000000
     8  N    4.036789   4.897054   0.000000
     9  C    4.787438   5.984303   1.478857   0.000000
    10  H    4.721078   5.915462   2.108857   1.085757   0.000000
    11  H    5.819035   6.885177   2.094697   1.085416   1.764784
    12  H    4.799671   6.272730   2.140698   1.092430   1.774894
    13  C    4.758393   5.512924   1.484682   2.440785   3.382172
    14  H    4.774013   5.809173   2.143895   2.719137   3.720442
    15  H    5.794904   6.482101   2.097615   2.659330   3.640651
    16  H    4.667080   5.064015   2.118146   3.383768   4.205820
    17  C    3.417326   1.476569   5.358726   6.599858   6.561101
    18  H    3.907580   2.106409   5.608143   6.959038   7.078730
    19  H    3.720511   2.117816   4.846869   6.081454   6.001731
    20  H    4.089247   2.089882   6.343374   7.522388   7.384709
    21  C    2.511428   1.475738   6.148059   7.105116   6.975361
    22  H    2.934172   2.106878   6.566401   7.392479   7.103696
    23  H    2.228656   2.104644   6.142099   7.003030   6.935317
    24  H    3.482993   2.099217   6.922119   7.985959   7.917560
                   11         12         13         14         15
    11  H    0.000000
    12  H    1.770796   0.000000
    13  C    2.657679   2.722750   0.000000
    14  H    3.041034   2.544880   1.091191   0.000000
    15  H    2.412834   3.050287   1.085725   1.770811   0.000000
    16  H    3.643112   3.722396   1.085881   1.772349   1.765354
    17  C    7.360357   7.068394   5.876497   6.371757   6.723482
    18  H    7.667009   7.383972   5.852561   6.307774   6.687673
    19  H    6.751400   6.691089   5.464068   6.113524   6.203303
    20  H    8.297384   8.002325   6.937788   7.435075   7.773755
    21  C    8.077460   7.252069   6.759449   6.903798   7.776939
    22  H    8.379079   7.579348   7.364634   7.555788   8.352772
    23  H    8.018775   6.985575   6.673038   6.645338   7.734849
    24  H    8.920786   8.155685   7.399188   7.561480   8.403777
                   16         17         18         19         20
    16  H    0.000000
    17  C    5.244772   0.000000
    18  H    5.068564   1.087478   0.000000
    19  H    4.874800   1.078981   1.773899   0.000000
    20  H    6.323021   1.084949   1.771439   1.758622   0.000000
    21  C    6.353732   2.506171   3.004721   3.369517   2.554037
    22  H    7.051936   2.996458   3.733212   3.694183   2.775530
    23  H    6.346500   3.370480   3.710373   4.195286   3.588238
    24  H    6.863305   2.576055   2.804079   3.603699   2.383396
                   21         22         23         24
    21  C    0.000000
    22  H    1.087339   0.000000
    23  H    1.084711   1.776111   0.000000
    24  H    1.084910   1.771958   1.770172   0.000000
 Stoichiometry    C7H15N2(1+)
 Framework group  C1[X(C7H15N2)]
 Deg. of freedom    66
 Full point group                 C1      NOp   1
 RotChk:  IX=0 Diff= 4.85D-02
 Largest Abelian subgroup         C1      NOp   1
 Largest concise Abelian subgroup C1      NOp   1
                         Standard orientation:                         
 ---------------------------------------------------------------------
 Center     Atomic      Atomic             Coordinates (Angstroms)
 Number     Number       Type             X           Y           Z
 ---------------------------------------------------------------------
      1          6           0        0.028341    0.188811   -0.185867
      2          6           0        1.201145   -0.451877    0.030887
      3          1           0        0.027313    1.186497   -0.587476
      4          1           0        1.218527   -1.463106    0.430623
      5          6           0       -1.225717   -0.496458    0.143035
      6          1           0       -1.137683   -1.490992    0.559515
      7          7           0       -2.442850   -0.040542   -0.000948
      8          7           0        2.441926    0.182337   -0.266342
      9          6           0        3.456434   -0.835046   -0.616660
     10          1           0        3.120466   -1.405112   -1.477484
     11          1           0        4.380771   -0.327408   -0.873625
     12          1           0        3.649376   -1.519118    0.212931
     13          6           0        2.896874    1.011648    0.878012
     14          1           0        3.071366    0.408620    1.770540
     15          1           0        3.824531    1.501636    0.598436
     16          1           0        2.154882    1.771496    1.104323
     17          6           0       -2.794914    1.280475   -0.558820
     18          1           0       -2.833895    2.014915    0.242233
[...]
    24  H    7.132024   2.778360   3.259789   3.715807   2.522502
                   21         22         23         24
    21  C    0.000000
    22  H    1.093766   0.000000
    23  H    1.090233   1.778452   0.000000
    24  H    1.093761   1.780779   1.778434   0.000000
 Stoichiometry    C7H15N2(1+)
 Framework group  C1[X(C7H15N2)]
 Deg. of freedom    66
 Full point group                 C1      NOp   1
 RotChk:  IX=2 Diff= 6.93D-16
 Largest Abelian subgroup         C1      NOp   1
 Largest concise Abelian subgroup C1      NOp   1
                         Standard orientation:                         
 ---------------------------------------------------------------------
 Center     Atomic      Atomic             Coordinates (Angstroms)
 Number     Number       Type             X           Y           Z
 ---------------------------------------------------------------------
      1          6           0       -0.000019    0.135661    0.000045
      2          6           0        1.199225   -0.577612    0.000003
      3          1           0       -0.000051    1.217540    0.000129
      4          1           0        1.158065   -1.664634    0.000013
      5          6           0       -1.199253   -0.577623    0.000025
      6          1           0       -1.158078   -1.664644   -0.000019
      7          7           0       -2.420770   -0.067436    0.000052
      8          7           0        2.420760   -0.067442   -0.000048
      9          6           0        3.611183   -0.924734    0.000013
     10          1           0        3.313602   -1.973570    0.000239
     11          1           0        4.214130   -0.725137   -0.890459
     12          1           0        4.214258   -0.724807    0.890320
     13          6           0        2.639407    1.383841   -0.000022
     14          1           0        2.198938    1.837188    0.893062
     15          1           0        3.710380    1.580865   -0.000427
     16          1           0        2.198301    1.837298   -0.892733
     17          6           0       -2.639340    1.383861    0.000001
     18          1           0       -2.198810    1.837222    0.893047
     19          1           0       -2.198238    1.837227   -0.892760
     20          1           0       -3.710306    1.580935   -0.000349
     21          6           0       -3.611211   -0.924712   -0.000047
     22          1           0       -4.213984   -0.725193   -0.890655
     23          1           0       -3.313635   -1.973547    0.000342
     24          1           0       -4.214453   -0.724690    0.890124
 ---------------------------------------------------------------------
 Rotational constants (GHZ):      4.3222634      0.6097145      0.5416810
 Leave Link  202 at Tue Jun 08 17:48:52 2021, MaxMem=    33554432 cpu:         0.0
 (Enter C:\G09W\l601.exe)
 Copying SCF densities to generalized density rwf, IOpCl= 0 IROHF=0.

 **********************************************************************

            Population analysis using the SCF density.

 **********************************************************************

 Orbital symmetries:
       Occupied  (A) (A) (A) (A) (A) (A) (A) (A) (A) (A) (A) (A)
                 (A) (A) (A) (A) (A) (A) (A) (A) (A) (A) (A) (A)
                 (A) (A) (A) (A) (A) (A) (A) (A) (A) (A) (A)
       Virtual   (A) (A) (A) (A) (A) (A) (A) (A) (A) (A) (A) (A)
                 (A) (A) (A) (A) (A) (A) (A) (A) (A) (A) (A) (A)
                 (A) (A) (A) (A) (A) (A) (A) (A) (A) (A) (A) (A)
                 (A) (A) (A) (A) (A) (A) (A) (A) (A) (A) (A) (A)
                 (A) (A) (A) (A) (A) (A) (A) (A) (A) (A) (A) (A)
                 (A) (A) (A) (A) (A) (A) (A) (A) (A) (A) (A) (A)
                 (A) (A) (A) (A) (A) (A) (A) (A) (A) (A) (A) (A)
                 (A) (A) (A) (A) (A) (A) (A) (A) (A) (A) (A) (A)
                 (A) (A) (A) (A) (A) (A) (A) (A) (A) (A) (A) (A)
                 (A) (A) (A) (A) (A) (A) (A) (A) (A) (A) (A) (A)
                 (A) (A) (A) (A) (A) (A) (A) (A) (A) (A) (A) (A)
                 (A) (A) (A) (A) (A) (A) (A) (A) (A) (A) (A) (A)
                 (A) (A) (A) (A) (A) (A) (A) (A) (A) (A) (A) (A)
                 (A) (A) (A) (A) (A) (A) (A) (A) (A) (A) (A) (A)
                 (A) (A) (A) (A) (A) (A) (A)
 The electronic state is 1-A.
 Alpha  occ. eigenvalues --  -14.54694 -14.54694 -10.40701 -10.40701 -10.36472
 Alpha  occ. eigenvalues --  -10.36472 -10.36434 -10.36434 -10.34093  -1.12852
 Alpha  occ. eigenvalues --   -1.12436  -0.95355  -0.88521  -0.87958  -0.87779
 Alpha  occ. eigenvalues --   -0.82659  -0.73477  -0.72144  -0.67763  -0.66352
 Alpha  occ. eigenvalues --   -0.63082  -0.62343  -0.61931  -0.61387  -0.55804
 Alpha  occ. eigenvalues --   -0.55545  -0.55323  -0.55281  -0.54895  -0.53972
 Alpha  occ. eigenvalues --   -0.53255  -0.52524  -0.50205  -0.45868  -0.36611
 Alpha virt. eigenvalues --   -0.19718  -0.08131  -0.06115  -0.05190  -0.04242
 Alpha virt. eigenvalues --   -0.02046  -0.00943  -0.00383  -0.00207   0.01208
 Alpha virt. eigenvalues --    0.01346   0.01496   0.01958   0.03192   0.03708
 Alpha virt. eigenvalues --    0.04950   0.06031   0.06424   0.06790   0.08613
 Alpha virt. eigenvalues --    0.08808   0.16385   0.18976   0.21115   0.28946
 Alpha virt. eigenvalues --    0.31528   0.32645   0.35671   0.36262   0.36382
 Alpha virt. eigenvalues --    0.38780   0.38967   0.41939   0.42262   0.43213
 Alpha virt. eigenvalues --    0.43595   0.44607   0.50173   0.52069   0.52397
 Alpha virt. eigenvalues --    0.53874   0.55780   0.56540   0.60473   0.61330
 Alpha virt. eigenvalues --    0.64546   0.66170   0.67561   0.68331   0.68414
 Alpha virt. eigenvalues --    0.68883   0.69893   0.70291   0.70395   0.74604
 Alpha virt. eigenvalues --    0.74637   0.75155   0.76028   0.76778   0.77744
 Alpha virt. eigenvalues --    0.78802   0.80459   0.81446   0.84526   0.86783
 Alpha virt. eigenvalues --    0.91291   0.92739   0.95564   1.10421   1.11500
 Alpha virt. eigenvalues --    1.13300   1.13959   1.15385   1.15627   1.17341
 Alpha virt. eigenvalues --    1.19430   1.20473   1.22510   1.23584   1.30002
 Alpha virt. eigenvalues --    1.36701   1.36946   1.48991   1.51581   1.56359
 Alpha virt. eigenvalues --    1.56445   1.65916   1.66242   1.66247   1.68825
 Alpha virt. eigenvalues --    1.70254   1.75000   1.76639   1.77056   1.78274
 Alpha virt. eigenvalues --    1.78958   1.82381   1.85750   1.87777   1.88462
 Alpha virt. eigenvalues --    1.88552   1.88645   1.88897   1.91269   1.91876
 Alpha virt. eigenvalues --    1.92606   1.92769   1.94342   1.96416   1.97381
 Alpha virt. eigenvalues --    1.97707   1.99316   2.00066   2.01792   2.10703
 Alpha virt. eigenvalues --    2.14034   2.17849   2.19177   2.19628   2.20431
 Alpha virt. eigenvalues --    2.21599   2.27508   2.29388   2.31530   2.32366
 Alpha virt. eigenvalues --    2.36789   2.38406   2.40356   2.44219   2.44228
 Alpha virt. eigenvalues --    2.46192   2.48128   2.48710   2.50574   2.51188
 Alpha virt. eigenvalues --    2.54601   2.55074   2.58795   2.62743   2.66923
 Alpha virt. eigenvalues --    2.67389   2.69547   2.69996   2.70080   2.70715
 Alpha virt. eigenvalues --    2.73978   2.74118   2.91412   2.92274   2.95851
 Alpha virt. eigenvalues --    2.96378   3.03611   3.04452   3.07974   3.08165
 Alpha virt. eigenvalues --    3.22187   3.26773   3.26773   3.26902   3.27165
 Alpha virt. eigenvalues --    3.27232   3.29532   3.30741   3.32892   3.44773
 Alpha virt. eigenvalues --    3.47776   3.83774   3.94808   3.99011   4.16681
 Alpha virt. eigenvalues --    4.29248   4.31553   4.33009   4.39955   4.52216
          Condensed to atoms (all electrons):
               1          2          3          4          5          6
     1  C    4.929395   0.509467   0.380465  -0.048278   0.509469  -0.048279
     2  C    0.509467   4.628932  -0.036382   0.384663  -0.002467  -0.005223
     3  H    0.380465  -0.036382   0.562701   0.004171  -0.036385   0.004171
     4  H   -0.048278   0.384663   0.004171   0.552889  -0.005223   0.005271
     5  C    0.509469  -0.002467  -0.036385  -0.005223   4.628928   0.384663
     6  H   -0.048279  -0.005223   0.004171   0.005271   0.384663   0.552887
     7  N   -0.041951   0.001232  -0.007882   0.000121   0.418631  -0.044322
     8  N   -0.041950   0.418629  -0.007880  -0.044323   0.001232   0.000121
     9  C    0.004525  -0.037269   0.000003  -0.006541  -0.000060  -0.000006
    10  H    0.000412  -0.002444  -0.000002   0.005740  -0.000009   0.000000
    11  H   -0.000155   0.000220   0.000001   0.000185   0.000004   0.000000
    12  H   -0.000155   0.000221   0.000001   0.000185   0.000004   0.000000
    13  C   -0.003393  -0.049006   0.006055   0.004499   0.000267   0.000016
    14  H    0.003248  -0.004927   0.000404  -0.000093   0.000123  -0.000001
    15  H    0.000115   0.004321   0.000006  -0.000164  -0.000012   0.000000
    16  H    0.003252  -0.004933   0.000404  -0.000093   0.000124  -0.000001
    17  C   -0.003393   0.000267   0.006056   0.000016  -0.049010   0.004499
    18  H    0.003248   0.000123   0.000404  -0.000001  -0.004928  -0.000093
    19  H    0.003253   0.000124   0.000404  -0.000001  -0.004934  -0.000093
    20  H    0.000115  -0.000012   0.000006   0.000000   0.004321  -0.000164
    21  C    0.004525  -0.000060   0.000003  -0.000006  -0.037270  -0.006541
    22  H   -0.000155   0.000004   0.000001   0.000000   0.000218   0.000185
    23  H    0.000412  -0.000009  -0.000002   0.000000  -0.002444   0.005739
    24  H   -0.000155   0.000004   0.000001   0.000000   0.000223   0.000185
               7          8          9         10         11         12
     1  C   -0.041951  -0.041950   0.004525   0.000412  -0.000155  -0.000155
     2  C    0.001232   0.418629  -0.037269  -0.002444   0.000220   0.000221
     3  H   -0.007882  -0.007880   0.000003  -0.000002   0.000001   0.000001
     4  H    0.000121  -0.044323  -0.006541   0.005740   0.000185   0.000185
     5  C    0.418631   0.001232  -0.000060  -0.000009   0.000004   0.000004
     6  H   -0.044322   0.000121  -0.000006   0.000000   0.000000   0.000000
     7  N    6.715650  -0.000070   0.000001   0.000000   0.000000   0.000000
     8  N   -0.000070   6.715646   0.285784  -0.032280  -0.038186  -0.038185
     9  C    0.000001   0.285784   4.823872   0.389409   0.389831   0.389833
    10  H    0.000000  -0.032280   0.389409   0.533251  -0.024784  -0.024783
    11  H    0.000000  -0.038186   0.389831  -0.024784   0.538680  -0.034587
    12  H    0.000000  -0.038185   0.389833  -0.024783  -0.034587   0.538680
    13  C    0.000003   0.278254  -0.039732   0.003862  -0.001630  -0.001629
    14  H   -0.000005  -0.036015   0.001980  -0.000190  -0.000299   0.001000
    15  H    0.000000  -0.030919  -0.002230   0.000240   0.000883   0.000878
    16  H   -0.000005  -0.036009   0.001983  -0.000190   0.000998  -0.000298
    17  C    0.278255   0.000003   0.000000   0.000000   0.000000   0.000000
    18  H   -0.036014  -0.000005   0.000000   0.000000   0.000000   0.000000
    19  H   -0.036011  -0.000005   0.000000   0.000000   0.000000   0.000000
    20  H   -0.030920   0.000000   0.000000   0.000000   0.000000   0.000000
    21  C    0.285782   0.000001   0.000000   0.000000   0.000000   0.000000
    22  H   -0.038188   0.000000   0.000000   0.000000   0.000000   0.000000
    23  H   -0.032281   0.000000   0.000000   0.000000   0.000000   0.000000
    24  H   -0.038182   0.000000   0.000000   0.000000   0.000000   0.000000
              13         14         15         16         17         18
     1  C   -0.003393   0.003248   0.000115   0.003252  -0.003393   0.003248
     2  C   -0.049006  -0.004927   0.004321  -0.004933   0.000267   0.000123
     3  H    0.006055   0.000404   0.000006   0.000404   0.006056   0.000404
     4  H    0.004499  -0.000093  -0.000164  -0.000093   0.000016  -0.000001
     5  C    0.000267   0.000123  -0.000012   0.000124  -0.049010  -0.004928
     6  H    0.000016  -0.000001   0.000000  -0.000001   0.004499  -0.000093
     7  N    0.000003  -0.000005   0.000000  -0.000005   0.278255  -0.036014
     8  N    0.278254  -0.036015  -0.030919  -0.036009   0.000003  -0.000005
     9  C   -0.039732   0.001980  -0.002230   0.001983   0.000000   0.000000
    10  H    0.003862  -0.000190   0.000240  -0.000190   0.000000   0.000000
    11  H   -0.001630  -0.000299   0.000883   0.000998   0.000000   0.000000
    12  H   -0.001629   0.001000   0.000878  -0.000298   0.000000   0.000000
    13  C    4.840265   0.387009   0.393358   0.387000  -0.000010  -0.000004
    14  H    0.387009   0.544723  -0.024449  -0.035431  -0.000004   0.000057
    15  H    0.393358  -0.024449   0.518358  -0.024445   0.000000   0.000000
    16  H    0.387000  -0.035431  -0.024445   0.544736  -0.000004  -0.000022
    17  C   -0.000010  -0.000004   0.000000  -0.000004   4.840266   0.387009
    18  H   -0.000004   0.000057   0.000000  -0.000022   0.387009   0.544721
    19  H   -0.000004  -0.000022   0.000000   0.000057   0.387001  -0.035431
    20  H    0.000000   0.000000   0.000000   0.000000   0.393357  -0.024448
    21  C    0.000000   0.000000   0.000000   0.000000  -0.039729   0.001981
    22  H    0.000000   0.000000   0.000000   0.000000  -0.001628  -0.000299
    23  H    0.000000   0.000000   0.000000   0.000000   0.003862  -0.000190
    24  H    0.000000   0.000000   0.000000   0.000000  -0.001630   0.000999
              19         20         21         22         23         24
     1  C    0.003253   0.000115   0.004525  -0.000155   0.000412  -0.000155
     2  C    0.000124  -0.000012  -0.000060   0.000004  -0.000009   0.000004
     3  H    0.000404   0.000006   0.000003   0.000001  -0.000002   0.000001
     4  H   -0.000001   0.000000  -0.000006   0.000000   0.000000   0.000000
     5  C   -0.004934   0.004321  -0.037270   0.000218  -0.002444   0.000223
     6  H   -0.000093  -0.000164  -0.006541   0.000185   0.005739   0.000185
     7  N   -0.036011  -0.030920   0.285782  -0.038188  -0.032281  -0.038182
     8  N   -0.000005   0.000000   0.000001   0.000000   0.000000   0.000000
     9  C    0.000000   0.000000   0.000000   0.000000   0.000000   0.000000
    10  H    0.000000   0.000000   0.000000   0.000000   0.000000   0.000000
    11  H    0.000000   0.000000   0.000000   0.000000   0.000000   0.000000
    12  H    0.000000   0.000000   0.000000   0.000000   0.000000   0.000000
    13  C   -0.000004   0.000000   0.000000   0.000000   0.000000   0.000000
    14  H   -0.000022   0.000000   0.000000   0.000000   0.000000   0.000000
    15  H    0.000000   0.000000   0.000000   0.000000   0.000000   0.000000
    16  H    0.000057   0.000000   0.000000   0.000000   0.000000   0.000000
    17  C    0.387001   0.393357  -0.039729  -0.001628   0.003862  -0.001630
    18  H   -0.035431  -0.024448   0.001981  -0.000299  -0.000190   0.000999
    19  H    0.544740  -0.024444   0.001982   0.000998  -0.000190  -0.000298
    20  H   -0.024444   0.518358  -0.002230   0.000882   0.000239   0.000879
    21  C    0.001982  -0.002230   4.823870   0.389831   0.389410   0.389833
    22  H    0.000998   0.000882   0.389831   0.538682  -0.024786  -0.034587
    23  H   -0.000190   0.000239   0.389410  -0.024786   0.533249  -0.024781
    24  H   -0.000298   0.000879   0.389833  -0.034587  -0.024781   0.538673
 Mulliken charges:
               1
     1  C   -0.164037
     2  C    0.194524
     3  H    0.123280
     4  H    0.146984
     5  C    0.194533
     6  H    0.146986
     7  N   -0.393845
     8  N   -0.393842
     9  C   -0.201383
    10  H    0.151769
    11  H    0.168839
    12  H    0.168836
    13  C   -0.205182
    14  H    0.162892
    15  H    0.164061
    16  H    0.162876
    17  C   -0.205182
    18  H    0.162893
    19  H    0.162876
    20  H    0.164060
    21  C   -0.201381
    22  H    0.168840
    23  H    0.151770
    24  H    0.168836
 Sum of Mulliken charges =   1.00000
 Mulliken charges with hydrogens summed into heavy atoms:
               1
     1  C   -0.040757
     2  C    0.341508
     5  C    0.341518
     7  N   -0.393845
     8  N   -0.393842
     9  C    0.288060
    13  C    0.284646
    17  C    0.284647
    21  C    0.288065
 Electronic spatial extent (au):  <R**2>=           2083.5819
 Charge=              1.0000 electrons
 Dipole moment (field-independent basis, Debye):
    X=             -0.0001    Y=             -0.3698    Z=              0.0000  Tot=              0.3698
 Quadrupole moment (field-independent basis, Debye-Ang):
   XX=             -8.8151   YY=            -42.8619   ZZ=            -55.5930
   XY=              0.0001   XZ=              0.0004   YZ=              0.0000
 Traceless Quadrupole moment (field-independent basis, Debye-Ang):
   XX=             26.9416   YY=             -7.1052   ZZ=            -19.8363
   XY=              0.0001   XZ=              0.0004   YZ=              0.0000
 Octapole moment (field-independent basis, Debye-Ang**2):
  XXX=             -0.0006  YYY=             -1.9109  ZZZ=             -0.0001  XYY=              0.0000
  XXY=             -5.8208  XXZ=             -0.0020  XZZ=             -0.0001  YZZ=              2.2574
  YYZ=              0.0009  XYZ=             -0.0007
 Hexadecapole moment (field-independent basis, Debye-Ang**3):
 XXXX=          -1627.9703 YYYY=           -348.0016 ZZZZ=            -79.2084 XXXY=              0.0024
 XXXZ=             -0.0024 YYYX=              0.0003 YYYZ=             -0.0030 ZZZX=              0.0027
 ZZZY=              0.0041 XXYY=           -362.9274 XXZZ=           -374.0397 YYZZ=            -75.1052
 XXYZ=              0.0003 YYXZ=             -0.0010 ZZXY=              0.0001
 N-N= 4.496612621440D+02 E-N=-1.778742058312D+03  KE= 3.812200689361D+02
 No NMR shielding tensors so no spin-rotation constants.
 Leave Link  601 at Tue Jun 08 17:48:52 2021, MaxMem=    33554432 cpu:         0.0
 (Enter C:\G09W\l9999.exe)
 1|1|UNPC-DESKTOP-283F0EC|FOpt|RB3LYP|6-31G(d,p)|C7H15N2(1+)|HANA|08-Ju
 n-2021|0||#p opt b3lyp/6-31g(d,p) geom=connectivity scf=tight||Optimiz
 ation||1,1|C,0.1176144596,-0.0992326981,0.12221046|C,0.0587497859,0.46
 52512826,1.3969014781|H,-0.6296783418,-0.8109634661,-0.2025276064|H,0.
 8285930077,1.1770231456,1.6867869195|C,1.1618933631,0.2747279231,-0.72
 42941849|H,1.8938376555,0.9930800477,-0.3616115236|N,1.3712828428,-0.1
 579226423,-1.9577299191|N,-0.8555160786,0.2267257455,2.3240716986|C,-0
 .810778479,0.885167649,3.6342271769|H,0.0507409616,1.5512918851,3.6859
 501682|H,-1.722780952,1.4687174171,3.7892938587|H,-0.7295374656,0.1347
 294024,4.4257815321|C,-1.9585982654,-0.7105889519,2.0818296508|H,-1.57
 09149971,-1.7126987566,1.8754021398|H,-2.5874961675,-0.7548198025,2.96
 97115873|H,-2.5670267413,-0.3752831074,1.2365398853|C,0.469236525,-1.1
 29916594,-2.5866768471|H,0.4516933382,-2.0620290112,-2.0139694877|H,-0
 .5449085194,-0.7244392412,-2.6517353092|H,0.8254695261,-1.3443602065,-
 3.593115645|C,2.5109431115,0.3115139225,-2.7532659985|H,2.1534605142,0
 .7994448671,-3.664558863|H,3.0988241105,1.024789443,-2.1751294886|H,3.
 1468598061,-0.5347045631,-3.0286514418||Version=EM64W-G09RevD.01|State
 =1-A|HF=-385.0817067|RMSD=5.342e-009|RMSF=2.576e-006|Dipole=0.1005121,
 0.0957058,0.0436455|Quadrupole=-2.8744711,-10.4327191,13.3071902,3.030
 661,-12.1836286,4.3118331|PG=C01 [X(C7H15N2)]||@


 IN THE WOODS WE RETURN TO REASON AND FAITH.

                                 -- EMERSON
 Job cpu time:       0 days  1 hours 28 minutes 23.0 seconds.
 File lengths (MBytes):  RWF=     30 Int=      0 D2E=      0 Chk=      4 Scr=      1
 Normal termination of Gaussian 09 at Tue Jun 08 17:48:52 2021.
