 Entering Gaussian System, Link 0=/opt/app/gaussian09/e01/g09/g09.exec
 Input=1_hydroxy_anthraquinone_opt.gjf
 Output=1_hydroxy_anthraquinone_opt.log
 Initial command:
 /opt/app/gaussian09/e01/g09/l1.exe "./Gau-33111.inp" -scrdir="./"
 Entering Link 1 = /opt/app/gaussian09/e01/g09/l1.exe PID=     33115.
  
 Copyright (c) 1988,1990,1992,1993,1995,1998,2003,2009,2015,
            Gaussian, Inc.  All Rights Reserved.
  
 This is part of the Gaussian(R) 09 program.  It is based on
 the Gaussian(R) 03 system (copyright 2003, Gaussian, Inc.),
 the Gaussian(R) 98 system (copyright 1998, Gaussian, Inc.),
 the Gaussian(R) 94 system (copyright 1995, Gaussian, Inc.),
 the Gaussian 92(TM) system (copyright 1992, Gaussian, Inc.),
 the Gaussian 90(TM) system (copyright 1990, Gaussian, Inc.),
 the Gaussian 88(TM) system (copyright 1988, Gaussian, Inc.),
 the Gaussian 86(TM) system (copyright 1986, Carnegie Mellon
 University), and the Gaussian 82(TM) system (copyright 1983,
 Carnegie Mellon University). Gaussian is a federally registered
 trademark of Gaussian, Inc.
  
 This software contains proprietary and confidential information,
 including trade secrets, belonging to Gaussian, Inc.
  
 This software is provided under written license and may be
 used, copied, transmitted, or stored only in accord with that
 written license.
  
 The following legend is applicable only to US Government
 contracts under FAR:
  
                    RESTRICTED RIGHTS LEGEND
  
 Use, reproduction and disclosure by the US Government is
 subject to restrictions as set forth in subparagraphs (a)
 and (c) of the Commercial Computer Software - Restricted
 Rights clause in FAR 52.227-19.
  
 Gaussian, Inc.
 340 Quinnipiac St., Bldg. 40, Wallingford CT 06492
  
  
 ---------------------------------------------------------------
 Warning -- This program may not be used in any manner that
 competes with the business of Gaussian, Inc. or will provide
 assistance to any competitor of Gaussian, Inc.  The licensee
 of this program is prohibited from giving any competitor of
 Gaussian, Inc. access to this program.  By using this program,
 the user acknowledges that Gaussian, Inc. is engaged in the
 business of creating and licensing software in the field of
 computational chemistry and represents and warrants to the
 licensee that it is not a competitor of Gaussian, Inc. and that
 it will not use this program in any manner prohibited above.
 ---------------------------------------------------------------
  

 Cite this work as:
 Gaussian 09, Revision E.01,
 M. J. Frisch, G. W. Trucks, H. B. Schlegel, G. E. Scuseria, 
 M. A. Robb, J. R. Cheeseman, G. Scalmani, V. Barone, B. Mennucci, 
 G. A. Petersson, H. Nakatsuji, M. Caricato, X. Li, H. P. Hratchian, 
 A. F. Izmaylov, J. Bloino, G. Zheng, J. L. Sonnenberg, M. Hada, 
 M. Ehara, K. Toyota, R. Fukuda, J. Hasegawa, M. Ishida, T. Nakajima, 
 Y. Honda, O. Kitao, H. Nakai, T. Vreven, J. A. Montgomery, Jr., 
 J. E. Peralta, F. Ogliaro, M. Bearpark, J. J. Heyd, E. Brothers, 
 K. N. Kudin, V. N. Staroverov, T. Keith, R. Kobayashi, J. Normand, 
 K. Raghavachari, A. Rendell, J. C. Burant, S. S. Iyengar, J. Tomasi, 
 M. Cossi, N. Rega, J. M. Millam, M. Klene, J. E. Knox, J. B. Cross, 
 V. Bakken, C. Adamo, J. Jaramillo, R. Gomperts, R. E. Stratmann, 
 O. Yazyev, A. J. Austin, R. Cammi, C. Pomelli, J. W. Ochterski, 
 R. L. Martin, K. Morokuma, V. G. Zakrzewski, G. A. Voth, 
 P. Salvador, J. J. Dannenberg, S. Dapprich, A. D. Daniels, 
 O. Farkas, J. B. Foresman, J. V. Ortiz, J. Cioslowski, 
 and D. J. Fox, Gaussian, Inc., Wallingford CT, 2013.
 
 ******************************************
 Gaussian 09:  ES64L-G09RevE.01 30-Nov-2015
                30-May-2021 
 ******************************************
 %chk=1_hydroxy_anthraquinone_opt.chk
 -----------------------------------------------------
 #p opt b3lyp/6-31g(d) geom=connectivity int=ultrafine
 -----------------------------------------------------
 1/14=-1,18=20,19=15,26=4,38=1,57=2/1,3;
 2/9=110,12=2,17=6,18=5,40=1/2;
 3/5=1,6=6,7=1,11=2,16=1,25=1,30=1,71=1,74=-5,75=-5/1,2,3;
 4//1;
 5/5=2,38=5/2;
 6/7=2,8=2,9=2,10=2,28=1/1;
 7//1,2,3,16;
 1/14=-1,18=20,19=15,26=4/3(2);
 2/9=110/2;
 99//99;
 2/9=110/2;
 3/5=1,6=6,7=1,11=2,16=1,25=1,30=1,71=1,74=-5,75=-5/1,2,3;
 4/5=5,16=3,69=1/1;
 5/5=2,38=5/2;
 7//1,2,3,16;
 1/14=-1,18=20,19=15,26=4/3(-5);
 2/9=110/2;
 6/7=2,8=2,9=2,10=2,19=2,28=1/1;
 99/9=1/99;
 Leave Link    1 at Sun May 30 21:17:36 2021, MaxMem=           0 cpu:         0.0
 (Enter /opt/app/gaussian09/e01/g09/l101.exe)
 ---------------------------
 1-hydroxy_anthraquinone opt
 ---------------------------
 Symbolic Z-matrix:
 Charge =  0 Multiplicity = 1
 C                    -3.28481  -3.198    -0.01292 
 C                    -1.92019  -3.198    -0.01292 
 C                    -1.1873   -1.96678  -0.01292 
 C                    -1.9113   -0.73503  -0.01843 
 C                    -3.34354  -0.77652  -0.01973 
 C                    -4.00732  -1.96881  -0.01636 
 C                     0.2116   -1.94389  -0.00802 
 C                    -1.21092   0.47614  -0.02016 
 C                     0.18802   0.49902  -0.01453 
 C                     0.91199  -0.73268  -0.00711 
 C                     2.34417  -0.69106   0. 
 H                     2.89004  -1.64658   0.0066 
 C                     3.00791   0.5013    0.00104 
 C                     2.28543   1.73041  -0.00713 
 C                     0.92078   1.73027  -0.0145 
 H                    -3.85068  -4.14127  -0.01051 
 H                    -1.35086  -4.13973  -0.00981 
 H                    -3.88935   0.17903  -0.02434 
 H                    -5.10672  -2.00498  -0.01779 
 H                     4.10732   0.5372    0.0072 
 H                     2.85151   2.67359  -0.00604 
 O                    -1.93587   1.70874  -0.0257 
 O                     0.93599  -3.17682  -0.00241 
 O                     0.1807    2.95383  -0.02265 
 H                     0.78916   3.69638  -0.02308 
 
 NAtoms=     25 NQM=       25 NQMF=       0 NMMI=      0 NMMIF=      0
                NMic=       0 NMicF=      0.
                    Isotopes and Nuclear Properties:
 (Nuclear quadrupole moments (NQMom) in fm**2, nuclear magnetic moments (NMagM)
  in nuclear magnetons)

  Atom         1           2           3           4           5           6           7           8           9          10
 IAtWgt=          12          12          12          12          12          12          12          12          12          12
 AtmWgt=  12.0000000  12.0000000  12.0000000  12.0000000  12.0000000  12.0000000  12.0000000  12.0000000  12.0000000  12.0000000
 NucSpn=           0           0           0           0           0           0           0           0           0           0
 AtZEff=   0.0000000   0.0000000   0.0000000   0.0000000   0.0000000   0.0000000   0.0000000   0.0000000   0.0000000   0.0000000
 NQMom=    0.0000000   0.0000000   0.0000000   0.0000000   0.0000000   0.0000000   0.0000000   0.0000000   0.0000000   0.0000000
 NMagM=    0.0000000   0.0000000   0.0000000   0.0000000   0.0000000   0.0000000   0.0000000   0.0000000   0.0000000   0.0000000
 AtZNuc=   6.0000000   6.0000000   6.0000000   6.0000000   6.0000000   6.0000000   6.0000000   6.0000000   6.0000000   6.0000000

  Atom        11          12          13          14          15          16          17          18          19          20
 IAtWgt=          12           1          12          12          12           1           1           1           1           1
 AtmWgt=  12.0000000   1.0078250  12.0000000  12.0000000  12.0000000   1.0078250   1.0078250   1.0078250   1.0078250   1.0078250
 NucSpn=           0           1           0           0           0           1           1           1           1           1
 AtZEff=   0.0000000   0.0000000   0.0000000   0.0000000   0.0000000   0.0000000   0.0000000   0.0000000   0.0000000   0.0000000
 NQMom=    0.0000000   0.0000000   0.0000000   0.0000000   0.0000000   0.0000000   0.0000000   0.0000000   0.0000000   0.0000000
 NMagM=    0.0000000   2.7928460   0.0000000   0.0000000   0.0000000   2.7928460   2.7928460   2.7928460   2.7928460   2.7928460
 AtZNuc=   6.0000000   1.0000000   6.0000000   6.0000000   6.0000000   1.0000000   1.0000000   1.0000000   1.0000000   1.0000000

  Atom        21          22          23          24          25
 IAtWgt=           1          16          16          16           1
 AtmWgt=   1.0078250  15.9949146  15.9949146  15.9949146   1.0078250
 NucSpn=           1           0           0           0           1
 AtZEff=   0.0000000   0.0000000   0.0000000   0.0000000   0.0000000
 NQMom=    0.0000000   0.0000000   0.0000000   0.0000000   0.0000000
 NMagM=    2.7928460   0.0000000   0.0000000   0.0000000   2.7928460
 AtZNuc=   1.0000000   8.0000000   8.0000000   8.0000000   1.0000000
 Leave Link  101 at Sun May 30 21:17:38 2021, MaxMem=    33554432 cpu:         0.1
 (Enter /opt/app/gaussian09/e01/g09/l103.exe)

 GradGradGradGradGradGradGradGradGradGradGradGradGradGradGradGradGradGrad
 Berny optimization.
 Initialization pass.
                           ----------------------------
                           !    Initial Parameters    !
                           ! (Angstroms and Degrees)  !
 --------------------------                            --------------------------
 ! Name  Definition              Value          Derivative Info.                !
 --------------------------------------------------------------------------------
 ! R1    R(1,2)                  1.3646         estimate D2E/DX2                !
 ! R2    R(1,6)                  1.4258         estimate D2E/DX2                !
 ! R3    R(1,16)                 1.1            estimate D2E/DX2                !
 ! R4    R(2,3)                  1.4328         estimate D2E/DX2                !
 ! R5    R(2,17)                 1.1005         estimate D2E/DX2                !
 ! R6    R(3,4)                  1.4288         estimate D2E/DX2                !
 ! R7    R(3,7)                  1.3991         estimate D2E/DX2                !
 ! R8    R(4,5)                  1.4328         estimate D2E/DX2                !
 ! R9    R(4,8)                  1.3991         estimate D2E/DX2                !
 ! R10   R(5,6)                  1.3646         estimate D2E/DX2                !
 ! R11   R(5,18)                 1.1005         estimate D2E/DX2                !
 ! R12   R(6,19)                 1.1            estimate D2E/DX2                !
 ! R13   R(7,10)                 1.3991         estimate D2E/DX2                !
 ! R14   R(7,23)                 1.43           estimate D2E/DX2                !
 ! R15   R(8,9)                  1.3991         estimate D2E/DX2                !
 ! R16   R(8,22)                 1.43           estimate D2E/DX2                !
 ! R17   R(9,10)                 1.4287         estimate D2E/DX2                !
 ! R18   R(9,15)                 1.4328         estimate D2E/DX2                !
 ! R19   R(10,11)                1.4328         estimate D2E/DX2                !
 ! R20   R(11,12)                1.1005         estimate D2E/DX2                !
 ! R21   R(11,13)                1.3646         estimate D2E/DX2                !
 ! R22   R(13,14)                1.4258         estimate D2E/DX2                !
 ! R23   R(13,20)                1.1            estimate D2E/DX2                !
 ! R24   R(14,15)                1.3647         estimate D2E/DX2                !
 ! R25   R(14,21)                1.1            estimate D2E/DX2                !
 ! R26   R(15,24)                1.43           estimate D2E/DX2                !
 ! R27   R(24,25)                0.96           estimate D2E/DX2                !
 ! A1    A(2,1,6)              120.4466         estimate D2E/DX2                !
 ! A2    A(2,1,16)             120.9594         estimate D2E/DX2                !
 ! A3    A(6,1,16)             118.5939         estimate D2E/DX2                !
 ! A4    A(1,2,3)              120.7635         estimate D2E/DX2                !
 ! A5    A(1,2,17)             121.155          estimate D2E/DX2                !
 ! A6    A(3,2,17)             118.0813         estimate D2E/DX2                !
 ! A7    A(2,3,4)              118.7901         estimate D2E/DX2                !
 ! A8    A(2,3,7)              121.7006         estimate D2E/DX2                !
 ! A9    A(4,3,7)              119.5092         estimate D2E/DX2                !
 ! A10   A(3,4,5)              118.7868         estimate D2E/DX2                !
 ! A11   A(3,4,8)              119.5145         estimate D2E/DX2                !
 ! A12   A(5,4,8)              121.6986         estimate D2E/DX2                !
 ! A13   A(4,5,6)              120.765          estimate D2E/DX2                !
 ! A14   A(4,5,18)             118.0759         estimate D2E/DX2                !
 ! A15   A(6,5,18)             121.1591         estimate D2E/DX2                !
 ! A16   A(1,6,5)              120.4476         estimate D2E/DX2                !
 ! A17   A(1,6,19)             118.5627         estimate D2E/DX2                !
 ! A18   A(5,6,19)             120.9896         estimate D2E/DX2                !
 ! A19   A(3,7,10)             120.9763         estimate D2E/DX2                !
 ! A20   A(3,7,23)             119.4985         estimate D2E/DX2                !
 ! A21   A(10,7,23)            119.5252         estimate D2E/DX2                !
 ! A22   A(4,8,9)              120.9759         estimate D2E/DX2                !
 ! A23   A(4,8,22)             119.499          estimate D2E/DX2                !
 ! A24   A(9,8,22)             119.5251         estimate D2E/DX2                !
 ! A25   A(8,9,10)             119.5096         estimate D2E/DX2                !
 ! A26   A(8,9,15)             121.6954         estimate D2E/DX2                !
 ! A27   A(10,9,15)            118.7949         estimate D2E/DX2                !
 ! A28   A(7,10,9)             119.5142         estimate D2E/DX2                !
 ! A29   A(7,10,11)            121.7035         estimate D2E/DX2                !
 ! A30   A(9,10,11)            118.7822         estimate D2E/DX2                !
 ! A31   A(10,11,12)           118.0746         estimate D2E/DX2                !
 ! A32   A(10,11,13)           120.7675         estimate D2E/DX2                !
 ! A33   A(12,11,13)           121.1578         estimate D2E/DX2                !
 ! A34   A(11,13,14)           120.4489         estimate D2E/DX2                !
 ! A35   A(11,13,20)           120.9732         estimate D2E/DX2                !
 ! A36   A(14,13,20)           118.5779         estimate D2E/DX2                !
 ! A37   A(13,14,15)           120.4423         estimate D2E/DX2                !
 ! A38   A(13,14,21)           118.5802         estimate D2E/DX2                !
 ! A39   A(15,14,21)           120.9774         estimate D2E/DX2                !
 ! A40   A(9,15,14)            120.7641         estimate D2E/DX2                !
 ! A41   A(9,15,24)            118.0731         estimate D2E/DX2                !
 ! A42   A(14,15,24)           121.1628         estimate D2E/DX2                !
 ! A43   A(15,24,25)           109.5            estimate D2E/DX2                !
 ! D1    D(6,1,2,3)              0.1607         estimate D2E/DX2                !
 ! D2    D(6,1,2,17)           179.9717         estimate D2E/DX2                !
 ! D3    D(16,1,2,3)          -179.854          estimate D2E/DX2                !
 ! D4    D(16,1,2,17)           -0.0429         estimate D2E/DX2                !
 ! D5    D(2,1,6,5)              0.0013         estimate D2E/DX2                !
 ! D6    D(2,1,6,19)           179.9091         estimate D2E/DX2                !
 ! D7    D(16,1,6,5)          -179.9844         estimate D2E/DX2                !
 ! D8    D(16,1,6,19)           -0.0766         estimate D2E/DX2                !
 ! D9    D(1,2,3,4)             -0.2525         estimate D2E/DX2                !
 ! D10   D(1,2,3,7)            179.7643         estimate D2E/DX2                !
 ! D11   D(17,2,3,4)           179.9308         estimate D2E/DX2                !
 ! D12   D(17,2,3,7)            -0.0524         estimate D2E/DX2                !
 ! D13   D(2,3,4,5)              0.1839         estimate D2E/DX2                !
 ! D14   D(2,3,4,8)           -179.9227         estimate D2E/DX2                !
 ! D15   D(7,3,4,5)           -179.8326         estimate D2E/DX2                !
 ! D16   D(7,3,4,8)              0.0609         estimate D2E/DX2                !
 ! D17   D(2,3,7,10)          -179.9531         estimate D2E/DX2                !
 ! D18   D(2,3,7,23)            -0.021          estimate D2E/DX2                !
 ! D19   D(4,3,7,10)             0.0639         estimate D2E/DX2                !
 ! D20   D(4,3,7,23)           179.996          estimate D2E/DX2                !
 ! D21   D(3,4,5,6)             -0.0283         estimate D2E/DX2                !
 ! D22   D(3,4,5,18)          -179.98           estimate D2E/DX2                !
 ! D23   D(8,4,5,6)           -179.9193         estimate D2E/DX2                !
 ! D24   D(8,4,5,18)             0.129          estimate D2E/DX2                !
 ! D25   D(3,4,8,9)             -0.0966         estimate D2E/DX2                !
 ! D26   D(3,4,8,22)           179.9991         estimate D2E/DX2                !
 ! D27   D(5,4,8,9)            179.7937         estimate D2E/DX2                !
 ! D28   D(5,4,8,22)            -0.1107         estimate D2E/DX2                !
 ! D29   D(4,5,6,1)             -0.0673         estimate D2E/DX2                !
 ! D30   D(4,5,6,19)          -179.9728         estimate D2E/DX2                !
 ! D31   D(18,5,6,1)           179.8829         estimate D2E/DX2                !
 ! D32   D(18,5,6,19)           -0.0226         estimate D2E/DX2                !
 ! D33   D(3,7,10,9)            -0.1515         estimate D2E/DX2                !
 ! D34   D(3,7,10,11)          179.9003         estimate D2E/DX2                !
 ! D35   D(23,7,10,9)          179.9164         estimate D2E/DX2                !
 ! D36   D(23,7,10,11)          -0.0317         estimate D2E/DX2                !
 ! D37   D(4,8,9,10)             0.0089         estimate D2E/DX2                !
 ! D38   D(4,8,9,15)          -179.9202         estimate D2E/DX2                !
 ! D39   D(22,8,9,10)          179.9133         estimate D2E/DX2                !
 ! D40   D(22,8,9,15)           -0.0159         estimate D2E/DX2                !
 ! D41   D(8,9,10,7)             0.115          estimate D2E/DX2                !
 ! D42   D(8,9,10,11)         -179.9353         estimate D2E/DX2                !
 ! D43   D(15,9,10,7)         -179.9538         estimate D2E/DX2                !
 ! D44   D(15,9,10,11)          -0.0041         estimate D2E/DX2                !
 ! D45   D(8,9,15,14)          179.9107         estimate D2E/DX2                !
 ! D46   D(8,9,15,24)           -0.1009         estimate D2E/DX2                !
 ! D47   D(10,9,15,14)          -0.0189         estimate D2E/DX2                !
 ! D48   D(10,9,15,24)         179.9695         estimate D2E/DX2                !
 ! D49   D(7,10,11,12)          -0.106          estimate D2E/DX2                !
 ! D50   D(7,10,11,13)        -179.9865         estimate D2E/DX2                !
 ! D51   D(9,10,11,12)         179.9455         estimate D2E/DX2                !
 ! D52   D(9,10,11,13)           0.065          estimate D2E/DX2                !
 ! D53   D(10,11,13,14)         -0.1018         estimate D2E/DX2                !
 ! D54   D(10,11,13,20)        179.9569         estimate D2E/DX2                !
 ! D55   D(12,11,13,14)       -179.9786         estimate D2E/DX2                !
 ! D56   D(12,11,13,20)          0.0801         estimate D2E/DX2                !
 ! D57   D(11,13,14,15)          0.078          estimate D2E/DX2                !
 ! D58   D(11,13,14,21)        179.9999         estimate D2E/DX2                !
 ! D59   D(20,13,14,15)       -179.9793         estimate D2E/DX2                !
 ! D60   D(20,13,14,21)         -0.0574         estimate D2E/DX2                !
 ! D61   D(13,14,15,9)          -0.0166         estimate D2E/DX2                !
 ! D62   D(13,14,15,24)        179.9954         estimate D2E/DX2                !
 ! D63   D(21,14,15,9)        -179.9366         estimate D2E/DX2                !
 ! D64   D(21,14,15,24)          0.0754         estimate D2E/DX2                !
 ! D65   D(9,15,24,25)        -179.9124         estimate D2E/DX2                !
 ! D66   D(14,15,24,25)          0.076          estimate D2E/DX2                !
 --------------------------------------------------------------------------------
 Trust Radius=3.00D-01 FncErr=1.00D-07 GrdErr=1.00D-06
 Number of steps in this run=    146 maximum allowed number of steps=    150.
 GradGradGradGradGradGradGradGradGradGradGradGradGradGradGradGradGradGrad

 Leave Link  103 at Sun May 30 21:17:38 2021, MaxMem=    33554432 cpu:         0.0
 (Enter /opt/app/gaussian09/e01/g09/l202.exe)
                          Input orientation:                          
 ---------------------------------------------------------------------
 Center     Atomic      Atomic             Coordinates (Angstroms)
 Number     Number       Type             X           Y           Z
 ---------------------------------------------------------------------
      1          6           0       -3.284813   -3.197997   -0.012916
      2          6           0       -1.920190   -3.197997   -0.012916
      3          6           0       -1.187299   -1.966776   -0.012916
      4          6           0       -1.911296   -0.735029   -0.018434
      5          6           0       -3.343536   -0.776520   -0.019734
      6          6           0       -4.007319   -1.968813   -0.016363
      7          6           0        0.211602   -1.943887   -0.008020
      8          6           0       -1.210919    0.476138   -0.020155
      9          6           0        0.188022    0.499022   -0.014530
     10          6           0        0.911991   -0.732681   -0.007110
     11          6           0        2.344173   -0.691057    0.000000
     12          1           0        2.890043   -1.646584    0.006601
     13          6           0        3.007910    0.501298    0.001042
     14          6           0        2.285427    1.730413   -0.007130
     15          6           0        0.920784    1.730268   -0.014497
     16          1           0       -3.850685   -4.141275   -0.010512
     17          1           0       -1.350864   -4.139731   -0.009810
     18          1           0       -3.889349    0.179026   -0.024338
     19          1           0       -5.106717   -2.004978   -0.017794
     20          1           0        4.107316    0.537202    0.007202
     21          1           0        2.851507    2.673590   -0.006035
     22          8           0       -1.935870    1.708743   -0.025699
     23          8           0        0.935987   -3.176824   -0.002410
     24          8           0        0.180703    2.953834   -0.022647
     25          1           0        0.789162    3.696382   -0.023083
 ---------------------------------------------------------------------
                    Distance matrix (angstroms):
                    1          2          3          4          5
     1  C    0.000000
     2  C    1.364623   0.000000
     3  C    2.432174   1.432841   0.000000
     4  C    2.820069   2.462990   1.428777   0.000000
     5  C    2.422199   2.808827   2.462948   1.432841   0.000000
     6  C    1.425805   2.422192   2.820023   2.432188   1.364618
     7  C    3.714530   2.473328   1.399097   2.442978   3.741910
     8  C    4.219047   3.741976   2.443039   1.399091   2.473299
     9  C    5.072330   4.255879   2.823415   2.435166   3.754855
    10  C    4.867338   3.754872   2.435168   2.823311   4.255772
    11  C    6.162013   4.946686   3.754853   4.255736   5.688385
    12  H    6.366797   5.054266   4.089942   4.887168   6.294062
    13  C    7.299544   6.162073   4.867377   5.072225   6.478743
    14  C    7.437529   6.478925   5.072383   4.867342   6.161988
    15  C    6.478800   5.688491   4.255837   3.754781   4.946558
    16  H    1.099996   2.148625   3.438325   3.919669   3.402773
    17  H    2.151054   1.100457   2.179105   3.450530   3.909224
    18  H    3.430726   3.909220   3.450460   2.179042   1.100455
    19  H    2.177763   3.402539   3.919607   3.438530   2.148935
    20  H    8.282251   7.091047   5.856898   6.151660   7.565830
    21  H    8.492939   7.566021   6.151829   5.856887   7.090980
    22  O    5.088802   4.906782   3.750995   2.443906   2.856237
    23  O    4.220866   2.856275   2.443905   3.750952   4.906738
    24  O    7.060801   6.500682   5.107242   4.240776   5.131842
    25  H    8.008110   7.407641   5.998154   5.189402   6.089832
                    6          7          8          9         10
     6  C    0.000000
     7  C    4.219003   0.000000
     8  C    3.714519   2.807175   0.000000
     9  C    4.867350   2.443031   1.399139   0.000000
    10  C    5.072250   1.399130   2.442982   1.428733   0.000000
    11  C    6.478764   2.473359   3.741848   2.462821   1.432804
    12  H    6.904923   2.694930   4.617852   3.450361   2.179013
    13  C    7.437418   3.714613   4.218957   2.819932   2.432210
    14  C    7.299521   4.219151   3.714540   2.432177   2.820134
    15  C    6.161932   3.741978   2.473263   1.432797   2.462976
    16  H    2.178109   4.618517   5.318737   6.151709   5.856757
    17  H    3.430697   2.695002   4.618002   4.887353   4.090050
    18  H    2.151091   4.617881   2.694862   4.089920   4.887164
    19  H    1.099994   5.318679   4.618786   5.856986   6.151723
    20  H    8.492819   4.618725   5.318656   3.919540   3.438446
    21  H    8.282240   5.318853   4.618690   3.438455   3.919746
    22  O    4.220830   4.237175   1.430000   2.444272   3.751161
    23  O    5.088788   1.430000   4.237175   3.751193   2.444266
    24  O    6.463127   4.897840   2.841759   2.454836   3.758379
    25  H    7.422985   5.669782   3.790818   3.253390   4.430794
                   11         12         13         14         15
    11  C    0.000000
    12  H    1.100477   0.000000
    13  C    1.364646   2.151121   0.000000
    14  C    2.422193   3.430723   1.425753   0.000000
    15  C    2.808747   3.909163   2.422128   1.364663   0.000000
    16  H    7.090866   7.187572   8.282146   8.492856   7.565841
    17  H    5.054379   4.919486   6.366960   6.905158   6.294227
    18  H    6.294000   7.020966   6.904831   6.366707   5.054090
    19  H    7.565875   8.004824   8.492876   8.282334   7.091040
    20  H    2.148801   2.500135   1.100009   2.177897   3.402626
    21  H    3.402686   4.320364   2.177927   1.100014   2.148865
    22  O    4.906982   5.877814   5.089165   4.221394   2.856757
    23  O    2.856927   2.481945   4.221547   5.089400   4.907131
    24  O    4.238673   5.339028   3.742806   2.434515   1.430000
    25  H    4.654912   5.741242   3.889985   2.470647   1.970533
                   16         17         18         19         20
    16  H    0.000000
    17  H    2.499822   0.000000
    18  H    4.320496   5.009569   0.000000
    19  H    2.478192   4.320147   2.500380   0.000000
    20  H    9.231373   7.187887   8.004745   9.558332   0.000000
    21  H    9.558336   8.005078   7.187651   9.231601   2.478182
    22  O    6.155441   5.877681   2.481152   4.883242   6.155785
    23  O    4.882874   2.481316   5.877591   6.155301   4.883791
    24  O    8.160441   7.257033   4.925940   7.248906   4.610780
    25  H    9.108084   8.123087   5.853226   8.201641   4.581646
                   21         22         23         24         25
    21  H    0.000000
    22  O    4.883677   0.000000
    23  O    6.156020   5.667175   0.000000
    24  O    2.685518   2.455634   6.177041   0.000000
    25  H    2.302099   3.372909   6.874805   0.960000   0.000000
 Stoichiometry    C14H8O3
 Framework group  C1[X(C14H8O3)]
 Deg. of freedom    69
 Full point group                 C1      NOp   1
 Largest Abelian subgroup         C1      NOp   1
 Largest concise Abelian subgroup C1      NOp   1
                         Standard orientation:                         
 ---------------------------------------------------------------------
 Center     Atomic      Atomic             Coordinates (Angstroms)
 Number     Number       Type             X           Y           Z
 ---------------------------------------------------------------------
      1          6           0        3.922922    0.300891    0.001929
      2          6           0        2.869896    1.168825   -0.002949
      3          6           0        1.521255    0.684883   -0.001990
      4          6           0        1.296507   -0.726107   -0.001338
      5          6           0        2.428101   -1.605035    0.002361
      6          6           0        3.698652   -1.107162    0.004638
      7          6           0        0.427215    1.556977   -0.002027
      8          6           0       -0.014288   -1.215262   -0.002042
      9          6           0       -1.108356   -0.343134   -0.001351
     10          6           0       -0.883616    1.067812   -0.000100
     11          6           0       -2.015256    1.946627    0.002012
     12          1           0       -1.828741    3.031181    0.003884
     13          6           0       -3.285814    1.448697    0.004148
     14          6           0       -3.510054    0.040690    0.002132
     15          6           0       -2.456913   -0.827178   -0.000358
     16          1           0        4.959537    0.668880    0.003613
     17          1           0        3.029541    2.257639   -0.004616
     18          1           0        2.241529   -2.689559    0.002486
     19          1           0        4.570018   -1.778506    0.007032
     20          1           0       -4.157025    2.120268    0.006482
     21          1           0       -4.546769   -0.327073    0.003945
     22          8           0       -0.238845   -2.627520   -0.001410
     23          8           0        0.652420    2.969132   -0.002592
     24          8           0       -2.664043   -2.242096   -0.002305
     25          1           0       -3.605852   -2.428094   -0.002757
 ---------------------------------------------------------------------
 Rotational constants (GHZ):      0.8661170      0.4117300      0.2790685
 Leave Link  202 at Sun May 30 21:17:38 2021, MaxMem=    33554432 cpu:         0.0
 (Enter /opt/app/gaussian09/e01/g09/l301.exe)
 Standard basis: 6-31G(d) (6D, 7F)
 Ernie: Thresh=  0.10000D-02 Tol=  0.10000D-05 Strict=F.
 There are   271 symmetry adapted cartesian basis functions of A   symmetry.
 There are   271 symmetry adapted basis functions of A   symmetry.
   271 basis functions,   508 primitive gaussians,   271 cartesian basis functions
    58 alpha electrons       58 beta electrons
       nuclear repulsion energy      1097.5821944572 Hartrees.
 IExCor=  402 DFT=T Ex+Corr=B3LYP ExCW=0 ScaHFX=  0.200000
 ScaDFX=  0.800000  0.720000  1.000000  0.810000 ScalE2=  1.000000  1.000000
 IRadAn=      5 IRanWt=     -1 IRanGd=            0 ICorTp=0 IEmpDi=  4
 NAtoms=   25 NActive=   25 NUniq=   25 SFac= 1.00D+00 NAtFMM=   60 NAOKFM=F Big=F
 Integral buffers will be    131072 words long.
 Raffenetti 2 integral format.
 Two-electron integral symmetry is turned on.
 Leave Link  301 at Sun May 30 21:17:38 2021, MaxMem=    33554432 cpu:         0.0
 (Enter /opt/app/gaussian09/e01/g09/l302.exe)
 NPDir=0 NMtPBC=     1 NCelOv=     1 NCel=       1 NClECP=     1 NCelD=      1
         NCelK=      1 NCelE2=     1 NClLst=     1 CellRange=     0.0.
 One-electron integrals computed using PRISM.
 NBasis=   271 RedAO= T EigKep=  1.77D-04  NBF=   271
 NBsUse=   271 1.00D-06 EigRej= -1.00D+00 NBFU=   271
 Precomputing XC quadrature grid using
 IXCGrd= 4 IRadAn=           5 IRanWt=          -1 IRanGd=           0 AccXCQ= 0.00D+00.
 Generated NRdTot=       0 NPtTot=           0 NUsed=           0 NTot=          32
 NSgBfM=   270   270   270   270   270 MxSgAt=    25 MxSgA2=    25.
 Leave Link  302 at Sun May 30 21:17:39 2021, MaxMem=    33554432 cpu:         1.2
 (Enter /opt/app/gaussian09/e01/g09/l303.exe)
 DipDrv:  MaxL=1.
 Leave Link  303 at Sun May 30 21:17:40 2021, MaxMem=    33554432 cpu:         0.0
 (Enter /opt/app/gaussian09/e01/g09/l401.exe)
 ExpMin= 1.61D-01 ExpMax= 5.48D+03 ExpMxC= 8.25D+02 IAcc=3 IRadAn=         5 AccDes= 0.00D+00
 Harris functional with IExCor=  402 and IRadAn=       5 diagonalized for initial guess.
 HarFok:  IExCor=  402 AccDes= 0.00D+00 IRadAn=         5 IDoV= 1 UseB2=F ITyADJ=14
 ICtDFT=  3500011 ScaDFX=  1.000000  1.000000  1.000000  1.000000
 FoFCou: FMM=F IPFlag=           0 FMFlag=      100000 FMFlg1=           0
         NFxFlg=           0 DoJE=T BraDBF=F KetDBF=T FulRan=T
         wScrn=  0.000000 ICntrl=     500 IOpCl=  0 I1Cent=   200000004 NGrid=           0
         NMat0=    1 NMatS0=      1 NMatT0=    0 NMatD0=    1 NMtDS0=    0 NMtDT0=    0
 Petite list used in FoFCou.
 Harris En= -763.892471851586    
 JPrj=0 DoOrth=F DoCkMO=F.
 Leave Link  401 at Sun May 30 21:17:58 2021, MaxMem=    33554432 cpu:        18.0
 (Enter /opt/app/gaussian09/e01/g09/l502.exe)
 Closed shell SCF:
 Using DIIS extrapolation, IDIIS=  1040.
 Integral symmetry usage will be decided dynamically.
 IVT=      242530 IEndB=      242530 NGot=    33554432 MDV=    33402255
 LenX=    33402255 LenY=    33328373
 Requested convergence on RMS density matrix=1.00D-08 within 128 cycles.
 Requested convergence on MAX density matrix=1.00D-06.
 Requested convergence on             energy=1.00D-06.
 No special actions if energy rises.
 Fock matrices will be formed incrementally for  20 cycles.
 Integral accuracy reduced to 1.0D-05 until final iterations.

 Cycle   1  Pass 0  IDiag  1:
 FoFJK:  IHMeth= 1 ICntrl=       0 DoSepK=F KAlg= 0 I1Cent=   0 FoldK=F
 IRaf= 810000000 NMat=   1 IRICut=       1 DoRegI=T DoRafI=F ISym2E= 0.
 FoFCou: FMM=F IPFlag=           0 FMFlag=      100000 FMFlg1=           0
         NFxFlg=           0 DoJE=F BraDBF=F KetDBF=F FulRan=T
         wScrn=  0.000000 ICntrl=       0 IOpCl=  0 I1Cent=           0 NGrid=           0
         NMat0=    1 NMatS0=      1 NMatT0=    0 NMatD0=    1 NMtDS0=    0 NMtDT0=    0
 Symmetry not used in FoFCou.
 E= -763.572205875675    
 DIIS: error= 4.08D-02 at cycle   1 NSaved=   1.
 NSaved= 1 IEnMin= 1 EnMin= -763.572205875675     IErMin= 1 ErrMin= 4.08D-02
 ErrMax= 4.08D-02  0.00D+00 EMaxC= 1.00D-01 BMatC= 3.48D-01 BMatP= 3.48D-01
 IDIUse=3 WtCom= 5.92D-01 WtEn= 4.08D-01
 Coeff-Com:  0.100D+01
 Coeff-En:   0.100D+01
 Coeff:      0.100D+01
 Gap=     0.113 Goal=   None    Shift=    0.000
 GapD=    0.113 DampG=1.000 DampE=0.500 DampFc=0.5000 IDamp=-1.
 Damping current iteration by 5.00D-01
 RMSDP=8.53D-03 MaxDP=2.63D-01              OVMax= 4.01D-01

 Cycle   2  Pass 0  IDiag  1:
 RMSU=  4.25D-03    CP:  9.85D-01
 E= -763.573736143042     Delta-E=       -0.001530267367 Rises=F Damp=T
 DIIS: error= 2.39D-02 at cycle   2 NSaved=   2.
 NSaved= 2 IEnMin= 2 EnMin= -763.573736143042     IErMin= 2 ErrMin= 2.39D-02
 ErrMax= 2.39D-02  0.00D+00 EMaxC= 1.00D-01 BMatC= 1.46D-01 BMatP= 3.48D-01
 IDIUse=3 WtCom= 7.61D-01 WtEn= 2.39D-01
 Coeff-Com:  0.346D+00 0.654D+00
 Coeff-En:   0.498D+00 0.502D+00
 Coeff:      0.383D+00 0.617D+00
 Gap=     0.113 Goal=   None    Shift=    0.000
 RMSDP=3.81D-03 MaxDP=1.20D-01 DE=-1.53D-03 OVMax= 3.54D-01

 Cycle   3  Pass 0  IDiag  1:
 RMSU=  3.02D-03    CP:  9.40D-01  5.11D-01
 E= -763.760517653756     Delta-E=       -0.186781510714 Rises=F Damp=F
 DIIS: error= 2.74D-02 at cycle   3 NSaved=   3.
 NSaved= 3 IEnMin= 3 EnMin= -763.760517653756     IErMin= 2 ErrMin= 2.39D-02
 ErrMax= 2.74D-02  0.00D+00 EMaxC= 1.00D-01 BMatC= 1.35D-01 BMatP= 1.46D-01
 IDIUse=3 WtCom= 7.26D-01 WtEn= 2.74D-01
 Coeff-Com:  0.965D-01 0.463D+00 0.440D+00
 Coeff-En:   0.000D+00 0.232D+00 0.768D+00
 Coeff:      0.700D-01 0.400D+00 0.530D+00
 Gap=     0.121 Goal=   None    Shift=    0.000
 RMSDP=2.36D-03 MaxDP=1.19D-01 DE=-1.87D-01 OVMax= 2.01D-01

 Cycle   4  Pass 0  IDiag  1:
 RMSU=  1.48D-03    CP:  9.51D-01  8.09D-01  5.71D-01
 E= -763.844555118760     Delta-E=       -0.084037465004 Rises=F Damp=F
 DIIS: error= 2.11D-02 at cycle   4 NSaved=   4.
 NSaved= 4 IEnMin= 4 EnMin= -763.844555118760     IErMin= 4 ErrMin= 2.11D-02
 ErrMax= 2.11D-02  0.00D+00 EMaxC= 1.00D-01 BMatC= 5.21D-02 BMatP= 1.35D-01
 IDIUse=3 WtCom= 7.89D-01 WtEn= 2.11D-01
 Coeff-Com:  0.436D-01 0.101D+00 0.370D+00 0.485D+00
 Coeff-En:   0.000D+00 0.000D+00 0.324D+00 0.676D+00
 Coeff:      0.344D-01 0.799D-01 0.360D+00 0.525D+00
 Gap=     0.111 Goal=   None    Shift=    0.000
 RMSDP=1.18D-03 MaxDP=7.26D-02 DE=-8.40D-02 OVMax= 1.19D-01

 Cycle   5  Pass 0  IDiag  1:
 RMSU=  4.89D-04    CP:  9.48D-01  6.36D-01  7.33D-01  5.90D-01
 E= -763.885427297204     Delta-E=       -0.040872178445 Rises=F Damp=F
 DIIS: error= 9.72D-03 at cycle   5 NSaved=   5.
 NSaved= 5 IEnMin= 5 EnMin= -763.885427297204     IErMin= 5 ErrMin= 9.72D-03
 ErrMax= 9.72D-03  0.00D+00 EMaxC= 1.00D-01 BMatC= 6.71D-03 BMatP= 5.21D-02
 IDIUse=3 WtCom= 9.03D-01 WtEn= 9.72D-02
 Coeff-Com:  0.199D-01 0.143D-01 0.222D+00 0.397D+00 0.347D+00
 Coeff-En:   0.000D+00 0.000D+00 0.000D+00 0.127D+00 0.873D+00
 Coeff:      0.180D-01 0.129D-01 0.200D+00 0.371D+00 0.398D+00
 Gap=     0.123 Goal=   None    Shift=    0.000
 RMSDP=5.32D-04 MaxDP=3.38D-02 DE=-4.09D-02 OVMax= 7.48D-02

 Cycle   6  Pass 0  IDiag  1:
 RMSU=  2.78D-04    CP:  9.48D-01  6.54D-01  7.20D-01  6.42D-01  1.02D-01
 E= -763.889138845084     Delta-E=       -0.003711547880 Rises=F Damp=F
 DIIS: error= 7.97D-03 at cycle   6 NSaved=   6.
 NSaved= 6 IEnMin= 6 EnMin= -763.889138845084     IErMin= 6 ErrMin= 7.97D-03
 ErrMax= 7.97D-03  0.00D+00 EMaxC= 1.00D-01 BMatC= 3.37D-03 BMatP= 6.71D-03
 IDIUse=3 WtCom= 9.20D-01 WtEn= 7.97D-02
 Coeff-Com:  0.602D-02-0.110D-01 0.948D-01 0.215D+00 0.367D+00 0.328D+00
 Coeff-En:   0.000D+00 0.000D+00 0.000D+00 0.000D+00 0.367D+00 0.633D+00
 Coeff:      0.554D-02-0.102D-01 0.873D-01 0.198D+00 0.367D+00 0.352D+00
 Gap=     0.101 Goal=   None    Shift=    0.000
 RMSDP=2.71D-04 MaxDP=1.76D-02 DE=-3.71D-03 OVMax= 4.03D-02

 Cycle   7  Pass 0  IDiag  1:
 RMSU=  1.01D-04    CP:  9.48D-01  6.59D-01  7.22D-01  6.37D-01  3.75D-01
                    CP:  2.39D-01
 E= -763.892185817713     Delta-E=       -0.003046972629 Rises=F Damp=F
 DIIS: error= 1.03D-03 at cycle   7 NSaved=   7.
 NSaved= 7 IEnMin= 7 EnMin= -763.892185817713     IErMin= 7 ErrMin= 1.03D-03
 ErrMax= 1.03D-03  0.00D+00 EMaxC= 1.00D-01 BMatC= 2.13D-04 BMatP= 3.37D-03
 IDIUse=3 WtCom= 9.90D-01 WtEn= 1.03D-02
 Coeff-Com:  0.574D-03-0.679D-02 0.198D-01 0.546D-01 0.184D+00 0.254D+00
 Coeff-Com:  0.493D+00
 Coeff-En:   0.000D+00 0.000D+00 0.000D+00 0.000D+00 0.000D+00 0.576D-01
 Coeff-En:   0.942D+00
 Coeff:      0.568D-03-0.672D-02 0.196D-01 0.541D-01 0.182D+00 0.252D+00
 Coeff:      0.498D+00
 Gap=     0.101 Goal=   None    Shift=    0.000
 RMSDP=7.67D-05 MaxDP=3.76D-03 DE=-3.05D-03 OVMax= 7.71D-03

 Cycle   8  Pass 0  IDiag  1:
 RMSU=  2.75D-05    CP:  9.47D-01  6.56D-01  7.25D-01  6.40D-01  3.98D-01
                    CP:  3.95D-01  4.79D-01
 E= -763.892377530938     Delta-E=       -0.000191713225 Rises=F Damp=F
 DIIS: error= 3.05D-04 at cycle   8 NSaved=   8.
 NSaved= 8 IEnMin= 8 EnMin= -763.892377530938     IErMin= 8 ErrMin= 3.05D-04
 ErrMax= 3.05D-04  0.00D+00 EMaxC= 1.00D-01 BMatC= 1.72D-05 BMatP= 2.13D-04
 IDIUse=3 WtCom= 9.97D-01 WtEn= 3.05D-03
 Coeff-Com: -0.195D-03-0.248D-02 0.245D-02 0.997D-02 0.759D-01 0.122D+00
 Coeff-Com:  0.317D+00 0.475D+00
 Coeff-En:   0.000D+00 0.000D+00 0.000D+00 0.000D+00 0.000D+00 0.000D+00
 Coeff-En:   0.458D-01 0.954D+00
 Coeff:     -0.195D-03-0.247D-02 0.245D-02 0.994D-02 0.757D-01 0.122D+00
 Coeff:      0.316D+00 0.477D+00
 Gap=     0.101 Goal=   None    Shift=    0.000
 RMSDP=1.88D-05 MaxDP=6.15D-04 DE=-1.92D-04 OVMax= 2.11D-03

 Cycle   9  Pass 0  IDiag  1:
 RMSU=  8.75D-06    CP:  9.47D-01  6.56D-01  7.25D-01  6.40D-01  3.94D-01
                    CP:  3.89D-01  5.47D-01  4.65D-01
 E= -763.892394377699     Delta-E=       -0.000016846760 Rises=F Damp=F
 DIIS: error= 8.17D-05 at cycle   9 NSaved=   9.
 NSaved= 9 IEnMin= 9 EnMin= -763.892394377699     IErMin= 9 ErrMin= 8.17D-05
 ErrMax= 8.17D-05  0.00D+00 EMaxC= 1.00D-01 BMatC= 1.35D-06 BMatP= 1.72D-05
 IDIUse=1 WtCom= 1.00D+00 WtEn= 0.00D+00
 Coeff-Com: -0.131D-03-0.643D-03-0.342D-03 0.484D-04 0.268D-01 0.455D-01
 Coeff-Com:  0.137D+00 0.278D+00 0.515D+00
 Coeff:     -0.131D-03-0.643D-03-0.342D-03 0.484D-04 0.268D-01 0.455D-01
 Coeff:      0.137D+00 0.278D+00 0.515D+00
 Gap=     0.101 Goal=   None    Shift=    0.000
 RMSDP=6.45D-06 MaxDP=2.11D-04 DE=-1.68D-05 OVMax= 5.54D-04

 Initial convergence to 1.0D-05 achieved.  Increase integral accuracy.
 Cycle  10  Pass 1  IDiag  1:
 E= -763.892403017638     Delta-E=       -0.000008639939 Rises=F Damp=F
 DIIS: error= 8.69D-05 at cycle   1 NSaved=   1.
 NSaved= 1 IEnMin= 1 EnMin= -763.892403017638     IErMin= 1 ErrMin= 8.69D-05
 ErrMax= 8.69D-05  0.00D+00 EMaxC= 1.00D-01 BMatC= 4.39D-07 BMatP= 4.39D-07
 IDIUse=1 WtCom= 1.00D+00 WtEn= 0.00D+00
 Coeff-Com:  0.100D+01
 Coeff:      0.100D+01
 Gap=     0.101 Goal=   None    Shift=    0.000
 RMSDP=6.45D-06 MaxDP=2.11D-04 DE=-8.64D-06 OVMax= 4.18D-04

 Cycle  11  Pass 1  IDiag  1:
 RMSU=  2.82D-05    CP:  1.00D+00
 E= -763.892402668218     Delta-E=        0.000000349420 Rises=F Damp=F
 DIIS: error= 5.21D-05 at cycle   2 NSaved=   2.
 NSaved= 2 IEnMin= 1 EnMin= -763.892403017638     IErMin= 2 ErrMin= 5.21D-05
 ErrMax= 5.21D-05  0.00D+00 EMaxC= 1.00D-01 BMatC= 6.48D-07 BMatP= 4.39D-07
 IDIUse=1 WtCom= 1.00D+00 WtEn= 0.00D+00
 Coeff-Com:  0.562D+00 0.438D+00
 Coeff:      0.562D+00 0.438D+00
 Gap=     0.101 Goal=   None    Shift=    0.000
 RMSDP=5.04D-06 MaxDP=1.80D-04 DE= 3.49D-07 OVMax= 4.78D-04

 Cycle  12  Pass 1  IDiag  1:
 RMSU=  4.99D-06    CP:  1.00D+00  9.75D-01
 E= -763.892403103060     Delta-E=       -0.000000434843 Rises=F Damp=F
 DIIS: error= 5.58D-05 at cycle   3 NSaved=   3.
 NSaved= 3 IEnMin= 3 EnMin= -763.892403103060     IErMin= 2 ErrMin= 5.21D-05
 ErrMax= 5.58D-05  0.00D+00 EMaxC= 1.00D-01 BMatC= 2.39D-07 BMatP= 4.39D-07
 IDIUse=1 WtCom= 1.00D+00 WtEn= 0.00D+00
 Coeff-Com:  0.169D+00 0.348D+00 0.483D+00
 Coeff:      0.169D+00 0.348D+00 0.483D+00
 Gap=     0.101 Goal=   None    Shift=    0.000
 RMSDP=3.13D-06 MaxDP=2.07D-04 DE=-4.35D-07 OVMax= 5.03D-04

 Cycle  13  Pass 1  IDiag  1:
 RMSU=  2.24D-06    CP:  1.00D+00  9.89D-01  5.67D-01
 E= -763.892403197283     Delta-E=       -0.000000094223 Rises=F Damp=F
 DIIS: error= 4.70D-05 at cycle   4 NSaved=   4.
 NSaved= 4 IEnMin= 4 EnMin= -763.892403197283     IErMin= 4 ErrMin= 4.70D-05
 ErrMax= 4.70D-05  0.00D+00 EMaxC= 1.00D-01 BMatC= 1.57D-07 BMatP= 2.39D-07
 IDIUse=1 WtCom= 1.00D+00 WtEn= 0.00D+00
 Coeff-Com:  0.167D-01 0.214D+00 0.446D+00 0.323D+00
 Coeff:      0.167D-01 0.214D+00 0.446D+00 0.323D+00
 Gap=     0.101 Goal=   None    Shift=    0.000
 RMSDP=1.68D-06 MaxDP=1.08D-04 DE=-9.42D-08 OVMax= 2.71D-04

 Cycle  14  Pass 1  IDiag  1:
 RMSU=  4.29D-07    CP:  1.00D+00  9.89D-01  6.52D-01  2.97D-01
 E= -763.892403340961     Delta-E=       -0.000000143678 Rises=F Damp=F
 DIIS: error= 4.92D-06 at cycle   5 NSaved=   5.
 NSaved= 5 IEnMin= 5 EnMin= -763.892403340961     IErMin= 5 ErrMin= 4.92D-06
 ErrMax= 4.92D-06  0.00D+00 EMaxC= 1.00D-01 BMatC= 5.27D-09 BMatP= 1.57D-07
 IDIUse=1 WtCom= 1.00D+00 WtEn= 0.00D+00
 Coeff-Com: -0.888D-03 0.123D+00 0.274D+00 0.223D+00 0.380D+00
 Coeff:     -0.888D-03 0.123D+00 0.274D+00 0.223D+00 0.380D+00
 Gap=     0.101 Goal=   None    Shift=    0.000
 RMSDP=3.27D-07 MaxDP=1.48D-05 DE=-1.44D-07 OVMax= 3.10D-05

 Cycle  15  Pass 1  IDiag  1:
 RMSU=  1.51D-07    CP:  1.00D+00  9.90D-01  6.55D-01  3.44D-01  3.75D-01
 E= -763.892403345732     Delta-E=       -0.000000004770 Rises=F Damp=F
 DIIS: error= 1.76D-06 at cycle   6 NSaved=   6.
 NSaved= 6 IEnMin= 6 EnMin= -763.892403345732     IErMin= 6 ErrMin= 1.76D-06
 ErrMax= 1.76D-06  0.00D+00 EMaxC= 1.00D-01 BMatC= 4.45D-10 BMatP= 5.27D-09
 IDIUse=1 WtCom= 1.00D+00 WtEn= 0.00D+00
 Coeff-Com: -0.147D-02 0.759D-01 0.171D+00 0.142D+00 0.275D+00 0.338D+00
 Coeff:     -0.147D-02 0.759D-01 0.171D+00 0.142D+00 0.275D+00 0.338D+00
 Gap=     0.101 Goal=   None    Shift=    0.000
 RMSDP=1.02D-07 MaxDP=5.52D-06 DE=-4.77D-09 OVMax= 5.79D-06

 Cycle  16  Pass 1  IDiag  1:
 RMSU=  5.74D-08    CP:  1.00D+00  9.90D-01  6.56D-01  3.44D-01  4.43D-01
                    CP:  4.89D-01
 E= -763.892403346116     Delta-E=       -0.000000000384 Rises=F Damp=F
 DIIS: error= 5.95D-07 at cycle   7 NSaved=   7.
 NSaved= 7 IEnMin= 7 EnMin= -763.892403346116     IErMin= 7 ErrMin= 5.95D-07
 ErrMax= 5.95D-07  0.00D+00 EMaxC= 1.00D-01 BMatC= 4.51D-11 BMatP= 4.45D-10
 IDIUse=1 WtCom= 1.00D+00 WtEn= 0.00D+00
 Coeff-Com: -0.933D-03 0.377D-01 0.856D-01 0.716D-01 0.145D+00 0.249D+00
 Coeff-Com:  0.412D+00
 Coeff:     -0.933D-03 0.377D-01 0.856D-01 0.716D-01 0.145D+00 0.249D+00
 Coeff:      0.412D+00
 Gap=     0.101 Goal=   None    Shift=    0.000
 RMSDP=3.73D-08 MaxDP=2.00D-06 DE=-3.84D-10 OVMax= 4.93D-06

 Cycle  17  Pass 1  IDiag  1:
 RMSU=  2.47D-08    CP:  1.00D+00  9.90D-01  6.54D-01  3.43D-01  4.38D-01
                    CP:  5.35D-01  5.58D-01
 E= -763.892403346169     Delta-E=       -0.000000000053 Rises=F Damp=F
 DIIS: error= 1.80D-07 at cycle   8 NSaved=   8.
 NSaved= 8 IEnMin= 8 EnMin= -763.892403346169     IErMin= 8 ErrMin= 1.80D-07
 ErrMax= 1.80D-07  0.00D+00 EMaxC= 1.00D-01 BMatC= 5.07D-12 BMatP= 4.51D-11
 IDIUse=1 WtCom= 1.00D+00 WtEn= 0.00D+00
 Coeff-Com: -0.339D-03 0.901D-02 0.213D-01 0.177D-01 0.377D-01 0.101D+00
 Coeff-Com:  0.285D+00 0.529D+00
 Coeff:     -0.339D-03 0.901D-02 0.213D-01 0.177D-01 0.377D-01 0.101D+00
 Coeff:      0.285D+00 0.529D+00
 Gap=     0.101 Goal=   None    Shift=    0.000
 RMSDP=1.22D-08 MaxDP=3.43D-07 DE=-5.34D-11 OVMax= 8.29D-07

 Cycle  18  Pass 1  IDiag  1:
 RMSU=  7.72D-09    CP:  1.00D+00  9.90D-01  6.55D-01  3.44D-01  4.42D-01
                    CP:  5.46D-01  6.73D-01  7.82D-01
 E= -763.892403346178     Delta-E=       -0.000000000009 Rises=F Damp=F
 DIIS: error= 3.17D-08 at cycle   9 NSaved=   9.
 NSaved= 9 IEnMin= 9 EnMin= -763.892403346178     IErMin= 9 ErrMin= 3.17D-08
 ErrMax= 3.17D-08  0.00D+00 EMaxC= 1.00D-01 BMatC= 3.66D-13 BMatP= 5.07D-12
 IDIUse=1 WtCom= 1.00D+00 WtEn= 0.00D+00
 Coeff-Com:  0.143D-04-0.268D-02-0.537D-02-0.476D-02-0.931D-02 0.970D-02
 Coeff-Com:  0.835D-01 0.241D+00 0.688D+00
 Coeff:      0.143D-04-0.268D-02-0.537D-02-0.476D-02-0.931D-02 0.970D-02
 Coeff:      0.835D-01 0.241D+00 0.688D+00
 Gap=     0.101 Goal=   None    Shift=    0.000
 RMSDP=3.79D-09 MaxDP=1.00D-07 DE=-8.64D-12 OVMax= 3.36D-07

 SCF Done:  E(RB3LYP) =  -763.892403346     A.U. after   18 cycles
            NFock= 18  Conv=0.38D-08     -V/T= 2.0100
 KE= 7.563119183808D+02 PE=-3.973779072183D+03 EE= 1.355992555999D+03
 Leave Link  502 at Sun May 30 21:25:10 2021, MaxMem=    33554432 cpu:       430.8
 (Enter /opt/app/gaussian09/e01/g09/l601.exe)
 Copying SCF densities to generalized density rwf, IOpCl= 0 IROHF=0.

 **********************************************************************

            Population analysis using the SCF density.

 **********************************************************************

 Orbital symmetries:
       Occupied  (A) (A) (A) (A) (A) (A) (A) (A) (A) (A) (A) (A)
                 (A) (A) (A) (A) (A) (A) (A) (A) (A) (A) (A) (A)
                 (A) (A) (A) (A) (A) (A) (A) (A) (A) (A) (A) (A)
                 (A) (A) (A) (A) (A) (A) (A) (A) (A) (A) (A) (A)
                 (A) (A) (A) (A) (A) (A) (A) (A) (A) (A)
       Virtual   (A) (A) (A) (A) (A) (A) (A) (A) (A) (A) (A) (A)
                 (A) (A) (A) (A) (A) (A) (A) (A) (A) (A) (A) (A)
                 (A) (A) (A) (A) (A) (A) (A) (A) (A) (A) (A) (A)
                 (A) (A) (A) (A) (A) (A) (A) (A) (A) (A) (A) (A)
                 (A) (A) (A) (A) (A) (A) (A) (A) (A) (A) (A) (A)
                 (A) (A) (A) (A) (A) (A) (A) (A) (A) (A) (A) (A)
                 (A) (A) (A) (A) (A) (A) (A) (A) (A) (A) (A) (A)
                 (A) (A) (A) (A) (A) (A) (A) (A) (A) (A) (A) (A)
                 (A) (A) (A) (A) (A) (A) (A) (A) (A) (A) (A) (A)
                 (A) (A) (A) (A) (A) (A) (A) (A) (A) (A) (A) (A)
                 (A) (A) (A) (A) (A) (A) (A) (A) (A) (A) (A) (A)
                 (A) (A) (A) (A) (A) (A) (A) (A) (A) (A) (A) (A)
                 (A) (A) (A) (A) (A) (A) (A) (A) (A) (A) (A) (A)
                 (A) (A) (A) (A) (A) (A) (A) (A) (A) (A) (A) (A)
                 (A) (A) (A) (A) (A) (A) (A) (A) (A) (A) (A) (A)
                 (A) (A) (A) (A) (A) (A) (A) (A) (A) (A) (A) (A)
                 (A) (A) (A) (A) (A) (A) (A) (A) (A) (A) (A) (A)
                 (A) (A) (A) (A) (A) (A) (A) (A) (A)
 The electronic state is 1-A.
 Alpha  occ. eigenvalues --  -19.18747 -19.13616 -19.13130 -10.28398 -10.27928
 Alpha  occ. eigenvalues --  -10.27497 -10.22874 -10.22736 -10.22558 -10.22432
 Alpha  occ. eigenvalues --  -10.22278 -10.22201 -10.21639 -10.21547 -10.21491
 Alpha  occ. eigenvalues --  -10.21281 -10.21207  -1.05257  -0.95826  -0.94292
 Alpha  occ. eigenvalues --   -0.88382  -0.87372  -0.82290  -0.77726  -0.77047
 Alpha  occ. eigenvalues --   -0.76910  -0.71108  -0.67010  -0.65027  -0.61385
 Alpha  occ. eigenvalues --   -0.58562  -0.56993  -0.55370  -0.51465  -0.49761
 Alpha  occ. eigenvalues --   -0.49138  -0.47782  -0.47494  -0.44360  -0.44236
 Alpha  occ. eigenvalues --   -0.43876  -0.41682  -0.40753  -0.40389  -0.39376
 Alpha  occ. eigenvalues --   -0.37876  -0.37232  -0.36837  -0.36532  -0.34821
 Alpha  occ. eigenvalues --   -0.33971  -0.33163  -0.27085  -0.26609  -0.25416
 Alpha  occ. eigenvalues --   -0.25093  -0.24858  -0.23710
 Alpha virt. eigenvalues --   -0.13644  -0.06321  -0.03624  -0.00986   0.04944
 Alpha virt. eigenvalues --    0.05164   0.06239   0.07701   0.09069   0.12895
 Alpha virt. eigenvalues --    0.13464   0.13594   0.14294   0.17137   0.17818
 Alpha virt. eigenvalues --    0.18678   0.19219   0.21408   0.21645   0.24741
 Alpha virt. eigenvalues --    0.25349   0.25702   0.29963   0.31093   0.32336
 Alpha virt. eigenvalues --    0.32642   0.34074   0.35935   0.40069   0.44209
 Alpha virt. eigenvalues --    0.44279   0.47057   0.48161   0.49181   0.50295
 Alpha virt. eigenvalues --    0.50388   0.51309   0.53536   0.53833   0.53854
 Alpha virt. eigenvalues --    0.54881   0.54931   0.55976   0.56767   0.57420
 Alpha virt. eigenvalues --    0.58128   0.58888   0.59318   0.59964   0.60786
 Alpha virt. eigenvalues --    0.61078   0.61547   0.62128   0.62783   0.64204
 Alpha virt. eigenvalues --    0.66300   0.66759   0.70472   0.71669   0.73800
 Alpha virt. eigenvalues --    0.75157   0.77548   0.79357   0.80497   0.81042
 Alpha virt. eigenvalues --    0.81119   0.81561   0.81778   0.84266   0.85442
 Alpha virt. eigenvalues --    0.86739   0.87240   0.87270   0.89329   0.90934
 Alpha virt. eigenvalues --    0.91346   0.92886   0.95345   0.96828   0.98945
 Alpha virt. eigenvalues --    0.99438   1.01107   1.02419   1.02980   1.04671
 Alpha virt. eigenvalues --    1.05364   1.08490   1.08935   1.10902   1.11492
 Alpha virt. eigenvalues --    1.14170   1.16785   1.19163   1.19235   1.21311
 Alpha virt. eigenvalues --    1.22236   1.23484   1.23627   1.27288   1.31436
 Alpha virt. eigenvalues --    1.32722   1.32892   1.34917   1.35080   1.36605
 Alpha virt. eigenvalues --    1.38224   1.41166   1.42918   1.43152   1.44264
 Alpha virt. eigenvalues --    1.46060   1.46896   1.47664   1.48061   1.50193
 Alpha virt. eigenvalues --    1.52800   1.57801   1.62083   1.65832   1.69967
 Alpha virt. eigenvalues --    1.71304   1.71877   1.72794   1.75148   1.75687
 Alpha virt. eigenvalues --    1.77889   1.78883   1.81010   1.81691   1.82621
 Alpha virt. eigenvalues --    1.82771   1.84376   1.86170   1.86469   1.87773
 Alpha virt. eigenvalues --    1.89388   1.89725   1.90247   1.93083   1.94372
 Alpha virt. eigenvalues --    1.95114   1.96205   1.98602   2.00619   2.01650
 Alpha virt. eigenvalues --    2.03737   2.04864   2.08296   2.10876   2.12366
 Alpha virt. eigenvalues --    2.12751   2.15756   2.18326   2.18806   2.21299
 Alpha virt. eigenvalues --    2.22861   2.25756   2.27057   2.28278   2.28710
 Alpha virt. eigenvalues --    2.31256   2.31327   2.32518   2.38249   2.38271
 Alpha virt. eigenvalues --    2.42102   2.43526   2.44518   2.46325   2.49144
 Alpha virt. eigenvalues --    2.49779   2.56502   2.56672   2.61247   2.63841
 Alpha virt. eigenvalues --    2.65596   2.66238   2.67231   2.67562   2.69789
 Alpha virt. eigenvalues --    2.71576   2.74855   2.76716   2.80081   2.82535
 Alpha virt. eigenvalues --    2.84132   2.89705   2.93148   2.96004   3.01022
 Alpha virt. eigenvalues --    3.02564   3.12641   3.17480   3.29591   3.44959
 Alpha virt. eigenvalues --    3.49854   3.91429   3.98980   4.05135   4.06215
 Alpha virt. eigenvalues --    4.06982   4.09205   4.12283   4.13421   4.18070
 Alpha virt. eigenvalues --    4.30069   4.32547   4.37049   4.39276   4.51585
 Alpha virt. eigenvalues --    4.58373   4.70130   4.93062
          Condensed to atoms (all electrons):
               1          2          3          4          5          6
     1  C    4.953997   0.468953  -0.017503  -0.035313  -0.018258   0.483598
     2  C    0.468953   5.109159   0.439111  -0.061446  -0.062867  -0.017416
     3  C   -0.017503   0.439111   5.218273   0.398609  -0.061374  -0.035583
     4  C   -0.035313  -0.061446   0.398609   5.177450   0.441609  -0.017391
     5  C   -0.018258  -0.062867  -0.061374   0.441609   5.105733   0.468755
     6  C    0.483598  -0.017416  -0.035583  -0.017391   0.468755   4.953537
     7  C    0.010644  -0.077678   0.113767   0.049584   0.014235  -0.000963
     8  C   -0.000885   0.013983   0.047290   0.155477  -0.078261   0.010090
     9  C    0.000116  -0.002537  -0.087947  -0.019765   0.021259  -0.000339
    10  C   -0.000438   0.019224   0.003492  -0.076944  -0.002614   0.000080
    11  C   -0.000002  -0.000359   0.018413  -0.001565   0.000009   0.000001
    12  H   -0.000000  -0.000014   0.000943  -0.000021   0.000000   0.000000
    13  C   -0.000000  -0.000003  -0.000443   0.000079   0.000001  -0.000000
    14  C    0.000000   0.000001   0.000055  -0.000308  -0.000003  -0.000000
    15  C    0.000001   0.000001  -0.002102   0.013057  -0.000154   0.000001
    16  H    0.359805  -0.034469   0.002571   0.000830   0.003624  -0.039593
    17  H   -0.043112   0.355196  -0.038537   0.004179   0.000317   0.004192
    18  H    0.004280   0.000221   0.003932  -0.040529   0.355666  -0.043246
    19  H   -0.039530   0.003651   0.000829   0.002517  -0.034306   0.359617
    20  H   -0.000000  -0.000000   0.000003  -0.000000   0.000000   0.000000
    21  H    0.000000   0.000000  -0.000000   0.000003  -0.000000  -0.000000
    22  O    0.000001  -0.000041   0.003654  -0.098381  -0.000340   0.001003
    23  O    0.001096  -0.000463  -0.103316   0.004129  -0.000034  -0.000004
    24  O    0.000000  -0.000000  -0.000011   0.000264   0.000014   0.000000
    25  H   -0.000000   0.000000   0.000001   0.000016  -0.000001  -0.000000
               7          8          9         10         11         12
     1  C    0.010644  -0.000885   0.000116  -0.000438  -0.000002  -0.000000
     2  C   -0.077678   0.013983  -0.002537   0.019224  -0.000359  -0.000014
     3  C    0.113767   0.047290  -0.087947   0.003492   0.018413   0.000943
     4  C    0.049584   0.155477  -0.019765  -0.076944  -0.001565  -0.000021
     5  C    0.014235  -0.078261   0.021259  -0.002614   0.000009   0.000000
     6  C   -0.000963   0.010090  -0.000339   0.000080   0.000001   0.000000
     7  C    5.214835  -0.117907   0.068681   0.098640  -0.075498  -0.006918
     8  C   -0.117907   5.246906   0.054936   0.042278   0.015771  -0.000064
     9  C    0.068681   0.054936   5.418882   0.356415  -0.061402   0.004349
    10  C    0.098640   0.042278   0.356415   5.253623   0.438436  -0.038626
    11  C   -0.075498   0.015771  -0.061402   0.438436   5.127586   0.356250
    12  H   -0.006918  -0.000064   0.004349  -0.038626   0.356250   0.528714
    13  C    0.011242  -0.002142  -0.034392  -0.006476   0.452521  -0.043027
    14  C   -0.000717   0.014561  -0.054770  -0.047654  -0.019038   0.004514
    15  C    0.015132  -0.085352   0.391638  -0.042705  -0.067023   0.000268
    16  H   -0.000161   0.000014  -0.000000   0.000003  -0.000000  -0.000000
    17  H   -0.006927  -0.000133  -0.000006   0.000850  -0.000017  -0.000009
    18  H   -0.000085  -0.006145   0.001341  -0.000057  -0.000000  -0.000000
    19  H    0.000013  -0.000163   0.000003  -0.000001  -0.000000  -0.000000
    20  H   -0.000160   0.000007   0.000781   0.002438  -0.032795  -0.004269
    21  H    0.000008  -0.000091   0.003891   0.000618   0.003796  -0.000136
    22  O   -0.000469   0.454699  -0.097030   0.004432   0.000002   0.000000
    23  O    0.456574  -0.000415   0.004436  -0.102403  -0.000813   0.017444
    24  O   -0.000030   0.000773  -0.052666   0.002750   0.000044   0.000001
    25  H    0.000000  -0.000106   0.008205   0.000009  -0.000013  -0.000000
              13         14         15         16         17         18
     1  C   -0.000000   0.000000   0.000001   0.359805  -0.043112   0.004280
     2  C   -0.000003   0.000001   0.000001  -0.034469   0.355196   0.000221
     3  C   -0.000443   0.000055  -0.002102   0.002571  -0.038537   0.003932
     4  C    0.000079  -0.000308   0.013057   0.000830   0.004179  -0.040529
     5  C    0.000001  -0.000003  -0.000154   0.003624   0.000317   0.355666
     6  C   -0.000000  -0.000000   0.000001  -0.039593   0.004192  -0.043246
     7  C    0.011242  -0.000717   0.015132  -0.000161  -0.006927  -0.000085
     8  C   -0.002142   0.014561  -0.085352   0.000014  -0.000133  -0.006145
     9  C   -0.034392  -0.054770   0.391638  -0.000000  -0.000006   0.001341
    10  C   -0.006476  -0.047654  -0.042705   0.000003   0.000850  -0.000057
    11  C    0.452521  -0.019038  -0.067023  -0.000000  -0.000017  -0.000000
    12  H   -0.043027   0.004514   0.000268  -0.000000  -0.000009  -0.000000
    13  C    4.960578   0.447573   0.013237   0.000000  -0.000000   0.000000
    14  C    0.447573   5.172665   0.428059   0.000000  -0.000000  -0.000000
    15  C    0.013237   0.428059   4.775758  -0.000000   0.000000   0.000013
    16  H    0.000000   0.000000  -0.000000   0.567176  -0.004557  -0.000142
    17  H   -0.000000  -0.000000   0.000000  -0.004557   0.531612   0.000013
    18  H    0.000000  -0.000000   0.000013  -0.000142   0.000013   0.531260
    19  H    0.000000  -0.000000  -0.000000  -0.004396  -0.000144  -0.004558
    20  H    0.357937  -0.034830   0.002868  -0.000000  -0.000000   0.000000
    21  H   -0.032525   0.348878  -0.039004   0.000000  -0.000000  -0.000000
    22  O   -0.000017   0.000794  -0.003084   0.000000   0.000000   0.017772
    23  O    0.001098  -0.000000  -0.000031  -0.000004   0.017242   0.000000
    24  O    0.003696  -0.070119   0.308710   0.000000  -0.000000   0.000005
    25  H    0.000394  -0.006187  -0.022478  -0.000000   0.000000  -0.000000
              19         20         21         22         23         24
     1  C   -0.039530  -0.000000   0.000000   0.000001   0.001096   0.000000
     2  C    0.003651  -0.000000   0.000000  -0.000041  -0.000463  -0.000000
     3  C    0.000829   0.000003  -0.000000   0.003654  -0.103316  -0.000011
     4  C    0.002517  -0.000000   0.000003  -0.098381   0.004129   0.000264
     5  C   -0.034306   0.000000  -0.000000  -0.000340  -0.000034   0.000014
     6  C    0.359617   0.000000  -0.000000   0.001003  -0.000004   0.000000
     7  C    0.000013  -0.000160   0.000008  -0.000469   0.456574  -0.000030
     8  C   -0.000163   0.000007  -0.000091   0.454699  -0.000415   0.000773
     9  C    0.000003   0.000781   0.003891  -0.097030   0.004436  -0.052666
    10  C   -0.000001   0.002438   0.000618   0.004432  -0.102403   0.002750
    11  C   -0.000000  -0.032795   0.003796   0.000002  -0.000813   0.000044
    12  H   -0.000000  -0.004269  -0.000136   0.000000   0.017444   0.000001
    13  C    0.000000   0.357937  -0.032525  -0.000017   0.001098   0.003696
    14  C   -0.000000  -0.034830   0.348878   0.000794  -0.000000  -0.070119
    15  C   -0.000000   0.002868  -0.039004  -0.003084  -0.000031   0.308710
    16  H   -0.004396  -0.000000   0.000000   0.000000  -0.000004   0.000000
    17  H   -0.000144  -0.000000  -0.000000   0.000000   0.017242  -0.000000
    18  H   -0.004558   0.000000  -0.000000   0.017772   0.000000   0.000005
    19  H    0.566351   0.000000  -0.000000  -0.000004   0.000000   0.000000
    20  H    0.000000   0.557924  -0.004860  -0.000000  -0.000003  -0.000043
    21  H   -0.000000  -0.004860   0.574799   0.000009   0.000000  -0.005249
    22  O   -0.000004  -0.000000   0.000009   8.255307   0.000000  -0.024929
    23  O    0.000000  -0.000003   0.000000   0.000000   8.257905   0.000000
    24  O    0.000000  -0.000043  -0.005249  -0.024929   0.000000   8.212259
    25  H   -0.000000  -0.000012   0.006912   0.002207  -0.000000   0.223410
              25
     1  C   -0.000000
     2  C    0.000000
     3  C    0.000001
     4  C    0.000016
     5  C   -0.000001
     6  C   -0.000000
     7  C    0.000000
     8  C   -0.000106
     9  C    0.008205
    10  C    0.000009
    11  C   -0.000013
    12  H   -0.000000
    13  C    0.000394
    14  C   -0.006187
    15  C   -0.022478
    16  H   -0.000000
    17  H    0.000000
    18  H   -0.000000
    19  H   -0.000000
    20  H   -0.000012
    21  H    0.006912
    22  O    0.002207
    23  O   -0.000000
    24  O    0.223410
    25  H    0.385238
 Mulliken charges:
               1
     1  C   -0.127450
     2  C   -0.152206
     3  C    0.095876
     4  C    0.103861
     5  C   -0.153009
     6  C   -0.126340
     7  C    0.234158
     8  C    0.234879
     9  C    0.075921
    10  C    0.094631
    11  C   -0.154302
    12  H    0.180601
    13  C   -0.129331
    14  C   -0.183473
    15  C    0.313191
    16  H    0.149300
    17  H    0.179841
    18  H    0.180259
    19  H    0.150121
    20  H    0.155016
    21  H    0.142952
    22  O   -0.515584
    23  O   -0.552436
    24  O   -0.598880
    25  H    0.402405
 Sum of Mulliken charges =  -0.00000
 Mulliken charges with hydrogens summed into heavy atoms:
               1
     1  C    0.021850
     2  C    0.027635
     3  C    0.095876
     4  C    0.103861
     5  C    0.027250
     6  C    0.023781
     7  C    0.234158
     8  C    0.234879
     9  C    0.075921
    10  C    0.094631
    11  C    0.026299
    13  C    0.025684
    14  C   -0.040521
    15  C    0.313191
    22  O   -0.515584
    23  O   -0.552436
    24  O   -0.196475
 Electronic spatial extent (au):  <R**2>=           3695.5054
 Charge=             -0.0000 electrons
 Dipole moment (field-independent basis, Debye):
    X=             -1.7017    Y=             -0.1025    Z=              0.0091  Tot=              1.7048
 Quadrupole moment (field-independent basis, Debye-Ang):
   XX=            -58.7553   YY=           -108.7123   ZZ=            -97.0738
   XY=             -3.4707   XZ=              0.0029   YZ=              0.0097
 Traceless Quadrupole moment (field-independent basis, Debye-Ang):
   XX=             29.4251   YY=            -20.5318   ZZ=             -8.8933
   XY=             -3.4707   XZ=              0.0029   YZ=              0.0097
 Octapole moment (field-independent basis, Debye-Ang**2):
  XXX=            -43.2060  YYY=            -18.7591  ZZZ=             -0.0416  XYY=            -17.8109
  XXY=            -24.2097  XXZ=              0.1338  XZZ=             -4.6714  YZZ=             -3.9934
  YYZ=              0.0827  XYZ=             -0.0800
 Hexadecapole moment (field-independent basis, Debye-Ang**3):
 XXXX=          -2567.1825 YYYY=          -1605.9598 ZZZZ=            -93.6739 XXXY=            108.4384
 XXXZ=              0.2484 YYYX=            -14.6435 YYYZ=              0.1524 ZZZX=              0.0325
 ZZZY=              0.0119 XXYY=           -644.6817 XXZZ=           -612.0653 YYZZ=           -264.9838
 XXYZ=              0.0779 YYXZ=              0.0056 ZZXY=             18.3353
 N-N= 1.097582194457D+03 E-N=-3.973779082309D+03  KE= 7.563119183808D+02
 No NMR shielding tensors so no spin-rotation constants.
 Leave Link  601 at Sun May 30 21:25:11 2021, MaxMem=    33554432 cpu:         0.3
 (Enter /opt/app/gaussian09/e01/g09/l701.exe)
 Compute integral first derivatives.
 ... and contract with generalized density number  0.
 Leave Link  701 at Sun May 30 21:25:12 2021, MaxMem=    33554432 cpu:         0.2
 (Enter /opt/app/gaussian09/e01/g09/l702.exe)
 L702 exits ... SP integral derivatives will be done elsewhere.
 Leave Link  702 at Sun May 30 21:25:12 2021, MaxMem=    33554432 cpu:         0.0
 (Enter /opt/app/gaussian09/e01/g09/l703.exe)
 Compute integral first derivatives, UseDBF=F ICtDFT=           0.
 Integral derivatives from FoFJK, PRISM(SPDF).
 Calling FoFJK, ICntrl=      2127 FMM=F ISym2X=0 I1Cent= 0 IOpClX= 0 NMat=1 NMatS=1 NMatT=0.
 FoFJK:  IHMeth= 1 ICntrl=    2127 DoSepK=F KAlg= 0 I1Cent=   0 FoldK=F
 IRaf=         0 NMat=   1 IRICut=       1 DoRegI=T DoRafI=F ISym2E= 0.
 FoFCou: FMM=F IPFlag=           0 FMFlag=      100000 FMFlg1=         800
         NFxFlg=           0 DoJE=F BraDBF=F KetDBF=F FulRan=T
         wScrn=  0.000000 ICntrl=    2127 IOpCl=  0 I1Cent=           0 NGrid=           0
         NMat0=    1 NMatS0=      1 NMatT0=    0 NMatD0=    1 NMtDS0=    0 NMtDT0=    0
 Symmetry not used in FoFCou.
 Leave Link  703 at Sun May 30 21:26:40 2021, MaxMem=    33554432 cpu:        88.0
 (Enter /opt/app/gaussian09/e01/g09/l716.exe)
 Dipole        =-6.69503746D-01-4.03333028D-02 3.58368555D-03
 ***** Axes restored to original set *****
 -------------------------------------------------------------------
 Center     Atomic                   Forces (Hartrees/Bohr)
 Number     Number              X              Y              Z
 -------------------------------------------------------------------
      1        6          -0.027234454    0.004504851   -0.000097518
      2        6           0.029424438    0.000178314    0.000350621
      3        6          -0.057226953   -0.006224698   -0.000408262
      4        6          -0.034387652   -0.049142567    0.000244787
      5        6           0.015639092    0.026245675   -0.000214804
      6        6          -0.008841755   -0.026712247   -0.000026061
      7        6           0.088757612   -0.156694841    0.000716992
      8        6          -0.087997634    0.157833235   -0.000640615
      9        6           0.041891060    0.007292703    0.000170892
     10        6           0.041623477    0.050239902   -0.000054461
     11        6          -0.017877548   -0.030525373    0.000169233
     12        1          -0.007666976    0.008451866   -0.000130646
     13        6           0.005400645    0.031490783   -0.000180665
     14        6           0.037769053   -0.008546921    0.000339187
     15        6          -0.046924704    0.038440464   -0.000446097
     16        1           0.006107508    0.006835387   -0.000054607
     17        1          -0.003467022    0.010612637   -0.000047520
     18        1           0.007820132   -0.008086197    0.000095143
     19        1           0.008919778    0.002085616    0.000059381
     20        1          -0.009413185   -0.001059583   -0.000039580
     21        1          -0.005922619   -0.006296125   -0.000050257
     22        8           0.061788878   -0.128058563    0.000486224
     23        8          -0.069662238    0.120264896   -0.000560857
     24        8           0.017574846   -0.048749360    0.000269628
     25        1           0.013906222    0.005620146    0.000049860
 -------------------------------------------------------------------
 Cartesian Forces:  Max     0.157833235 RMS     0.041956504
 Leave Link  716 at Sun May 30 21:26:40 2021, MaxMem=    33554432 cpu:         0.0
 (Enter /opt/app/gaussian09/e01/g09/l103.exe)

 GradGradGradGradGradGradGradGradGradGradGradGradGradGradGradGradGradGrad
 Berny optimization.
 FormGI is forming the generalized inverse of G from B-inverse, IUseBI=4.
 Internal  Forces:  Max     0.141707876 RMS     0.020310442
 Search for a local minimum.
 Step number   1 out of a maximum of  146
 All quantities printed in internal units (Hartrees-Bohrs-Radians)
 RMS Force = .20310D-01 SwitMx=.10000D-02 MixMth= 1
 Mixed Optimization -- RFO/linear search
 Second derivative matrix not updated -- first step.
 ITU=  0
     Eigenvalues ---    0.01295   0.01753   0.01761   0.01770   0.01819
     Eigenvalues ---    0.01820   0.01903   0.01921   0.01979   0.02000
     Eigenvalues ---    0.02009   0.02051   0.02100   0.02100   0.02100
     Eigenvalues ---    0.02119   0.02151   0.02155   0.02218   0.02225
     Eigenvalues ---    0.02348   0.02351   0.16000   0.16000   0.16000
     Eigenvalues ---    0.16000   0.16000   0.16000   0.16000   0.16000
     Eigenvalues ---    0.22000   0.22096   0.22553   0.23502   0.24493
     Eigenvalues ---    0.24910   0.25000   0.25000   0.25000   0.25000
     Eigenvalues ---    0.25000   0.25000   0.33629   0.33632   0.33632
     Eigenvalues ---    0.33681   0.33681   0.33683   0.33683   0.35788
     Eigenvalues ---    0.38250   0.38577   0.38718   0.40223   0.40749
     Eigenvalues ---    0.40989   0.40989   0.40989   0.41161   0.41414
     Eigenvalues ---    0.42102   0.44932   0.45767   0.45768   0.49856
     Eigenvalues ---    0.49906   0.51296   0.51336   0.55473
 RFO step:  Lambda=-1.08714824D-01 EMin= 1.29493783D-02
 Linear search not attempted -- first point.
 Maximum step size (   0.300) exceeded in Quadratic search.
    -- Step size scaled by   0.650
 Iteration  1 RMS(Cart)=  0.04369969 RMS(Int)=  0.00070597
 Iteration  2 RMS(Cart)=  0.00110948 RMS(Int)=  0.00002001
 Iteration  3 RMS(Cart)=  0.00000135 RMS(Int)=  0.00001997
 Iteration  4 RMS(Cart)=  0.00000000 RMS(Int)=  0.00001997
 ITry= 1 IFail=0 DXMaxC= 2.63D-01 DCOld= 1.00D+10 DXMaxT= 3.00D-01 DXLimC= 3.00D+00 Rises=F
 Variable       Old X    -DE/DX   Delta X   Delta X   Delta X     New X
                                 (Linear)    (Quad)   (Total)
    R1        2.57876   0.01466   0.00000   0.01558   0.01558   2.59434
    R2        2.69438  -0.01191   0.00000  -0.01367  -0.01368   2.68070
    R3        2.07869  -0.00900   0.00000  -0.01313  -0.01313   2.06556
    R4        2.70768  -0.01619   0.00000  -0.02100  -0.02099   2.68669
    R5        2.07956  -0.01088   0.00000  -0.01588  -0.01588   2.06368
    R6        2.70000  -0.01150   0.00000  -0.01610  -0.01614   2.68386
    R7        2.64391   0.03745   0.00000   0.04229   0.04226   2.68617
    R8        2.70768  -0.01717   0.00000  -0.02218  -0.02218   2.68550
    R9        2.64390   0.04519   0.00000   0.05192   0.05190   2.69580
   R10        2.57875   0.01588   0.00000   0.01687   0.01687   2.59562
   R11        2.07956  -0.01090   0.00000  -0.01591  -0.01591   2.06364
   R12        2.07869  -0.00898   0.00000  -0.01310  -0.01310   2.06559
   R13        2.64397   0.04282   0.00000   0.04904   0.04906   2.69303
   R14        2.70231  -0.13898   0.00000  -0.17412  -0.17412   2.52818
   R15        2.64399   0.05215   0.00000   0.06051   0.06053   2.70452
   R16        2.70231  -0.14171   0.00000  -0.17754  -0.17754   2.52477
   R17        2.69991   0.00053   0.00000   0.00111   0.00120   2.70111
   R18        2.70759   0.00230   0.00000   0.00341   0.00343   2.71103
   R19        2.70761  -0.02005   0.00000  -0.02602  -0.02601   2.68160
   R20        2.07960  -0.01114   0.00000  -0.01627  -0.01627   2.06333
   R21        2.57881   0.01343   0.00000   0.01348   0.01345   2.59226
   R22        2.69428  -0.02071   0.00000  -0.02544  -0.02547   2.66881
   R23        2.07872  -0.00944   0.00000  -0.01377  -0.01377   2.06495
   R24        2.57884   0.02206   0.00000   0.02337   0.02335   2.60219
   R25        2.07873  -0.00845   0.00000  -0.01232  -0.01232   2.06641
   R26        2.70231  -0.05320   0.00000  -0.06665  -0.06665   2.63566
   R27        1.81414   0.01316   0.00000   0.01289   0.01289   1.82703
    A1        2.10219  -0.00291   0.00000  -0.00335  -0.00337   2.09882
    A2        2.11114  -0.00033   0.00000  -0.00265  -0.00264   2.10850
    A3        2.06985   0.00325   0.00000   0.00600   0.00601   2.07587
    A4        2.10772  -0.00225   0.00000  -0.00463  -0.00464   2.10308
    A5        2.11455   0.00375   0.00000   0.00866   0.00866   2.12322
    A6        2.06091  -0.00150   0.00000  -0.00403  -0.00403   2.05688
    A7        2.07328   0.00564   0.00000   0.00886   0.00890   2.08218
    A8        2.12408  -0.00311   0.00000  -0.00306  -0.00302   2.12105
    A9        2.08583  -0.00252   0.00000  -0.00581  -0.00588   2.07995
   A10        2.07322   0.00292   0.00000   0.00339   0.00341   2.07664
   A11        2.08592   0.00317   0.00000   0.00570   0.00565   2.09157
   A12        2.12404  -0.00608   0.00000  -0.00909  -0.00906   2.11498
   A13        2.10775  -0.00143   0.00000  -0.00286  -0.00287   2.10488
   A14        2.06081  -0.00218   0.00000  -0.00556  -0.00555   2.05526
   A15        2.11463   0.00360   0.00000   0.00842   0.00842   2.12305
   A16        2.10221  -0.00196   0.00000  -0.00141  -0.00143   2.10077
   A17        2.06931   0.00284   0.00000   0.00521   0.00522   2.07453
   A18        2.11167  -0.00088   0.00000  -0.00379  -0.00378   2.10788
   A19        2.11143   0.00439   0.00000   0.00627   0.00627   2.11771
   A20        2.08564  -0.00104   0.00000  -0.00103  -0.00103   2.08461
   A21        2.08611  -0.00336   0.00000  -0.00524  -0.00524   2.08087
   A22        2.11143   0.00219   0.00000   0.00471   0.00473   2.11616
   A23        2.08565  -0.01685   0.00000  -0.03089  -0.03091   2.05474
   A24        2.08611   0.01466   0.00000   0.02618   0.02617   2.11228
   A25        2.08584  -0.00979   0.00000  -0.01646  -0.01640   2.06943
   A26        2.12399   0.02022   0.00000   0.03552   0.03543   2.15942
   A27        2.07336  -0.01043   0.00000  -0.01906  -0.01903   2.05434
   A28        2.08592   0.00257   0.00000   0.00558   0.00563   2.09155
   A29        2.12413  -0.01470   0.00000  -0.02623  -0.02631   2.09782
   A30        2.07314   0.01214   0.00000   0.02065   0.02068   2.09382
   A31        2.06079  -0.00223   0.00000  -0.00470  -0.00470   2.05609
   A32        2.10779  -0.00066   0.00000  -0.00299  -0.00299   2.10480
   A33        2.11460   0.00289   0.00000   0.00769   0.00769   2.12229
   A34        2.10223  -0.00139   0.00000  -0.00300  -0.00305   2.09917
   A35        2.11138  -0.00009   0.00000  -0.00039  -0.00036   2.11102
   A36        2.06958   0.00148   0.00000   0.00339   0.00342   2.07299
   A37        2.10211   0.00084   0.00000   0.00335   0.00331   2.10543
   A38        2.06962   0.00149   0.00000   0.00295   0.00297   2.07258
   A39        2.11145  -0.00233   0.00000  -0.00630  -0.00628   2.10518
   A40        2.10773  -0.00050   0.00000   0.00105   0.00108   2.10881
   A41        2.06076   0.01301   0.00000   0.02259   0.02257   2.08334
   A42        2.11469  -0.01251   0.00000  -0.02364  -0.02365   2.09104
   A43        1.91114  -0.01305   0.00000  -0.03156  -0.03156   1.87958
    D1        0.00280  -0.00007   0.00000  -0.00034  -0.00034   0.00246
    D2        3.14110   0.00001   0.00000   0.00007   0.00007   3.14117
    D3       -3.13904  -0.00006   0.00000  -0.00030  -0.00030  -3.13935
    D4       -0.00075   0.00002   0.00000   0.00011   0.00011  -0.00064
    D5        0.00002  -0.00000   0.00000   0.00001   0.00001   0.00003
    D6        3.14001   0.00004   0.00000   0.00021   0.00021   3.14022
    D7       -3.14132  -0.00001   0.00000  -0.00003  -0.00003  -3.14135
    D8       -0.00134   0.00003   0.00000   0.00017   0.00018  -0.00116
    D9       -0.00441   0.00010   0.00000   0.00050   0.00050  -0.00391
   D10        3.13748   0.00008   0.00000   0.00041   0.00041   3.13789
   D11        3.14038   0.00001   0.00000   0.00008   0.00008   3.14046
   D12       -0.00091  -0.00001   0.00000  -0.00002  -0.00002  -0.00093
   D13        0.00321  -0.00007   0.00000  -0.00035  -0.00035   0.00286
   D14       -3.14024  -0.00003   0.00000  -0.00016  -0.00016  -3.14040
   D15       -3.13867  -0.00005   0.00000  -0.00026  -0.00026  -3.13893
   D16        0.00106  -0.00002   0.00000  -0.00007  -0.00006   0.00100
   D17       -3.14077  -0.00001   0.00000  -0.00003  -0.00003  -3.14080
   D18       -0.00037   0.00002   0.00000   0.00013   0.00013  -0.00024
   D19        0.00112  -0.00003   0.00000  -0.00012  -0.00012   0.00099
   D20        3.14152   0.00000   0.00000   0.00003   0.00003   3.14156
   D21       -0.00049   0.00002   0.00000   0.00007   0.00006  -0.00043
   D22       -3.14124  -0.00000   0.00000  -0.00002  -0.00002  -3.14127
   D23       -3.14018  -0.00002   0.00000  -0.00015  -0.00015  -3.14033
   D24        0.00225  -0.00005   0.00000  -0.00024  -0.00024   0.00202
   D25       -0.00169   0.00003   0.00000   0.00016   0.00016  -0.00153
   D26        3.14158  -0.00005   0.00000  -0.00021  -0.00020   3.14138
   D27        3.13799   0.00007   0.00000   0.00037   0.00037   3.13836
   D28       -0.00193  -0.00001   0.00000   0.00001   0.00001  -0.00192
   D29       -0.00117   0.00003   0.00000   0.00013   0.00013  -0.00105
   D30       -3.14112  -0.00002   0.00000  -0.00009  -0.00009  -3.14121
   D31        3.13955   0.00005   0.00000   0.00021   0.00021   3.13976
   D32       -0.00039  -0.00000   0.00000  -0.00001  -0.00000  -0.00040
   D33       -0.00265   0.00003   0.00000   0.00017   0.00017  -0.00247
   D34        3.13985   0.00001   0.00000   0.00009   0.00009   3.13995
   D35        3.14013  -0.00000   0.00000   0.00001   0.00001   3.14015
   D36       -0.00055  -0.00002   0.00000  -0.00007  -0.00006  -0.00062
   D37        0.00016  -0.00002   0.00000  -0.00010  -0.00010   0.00006
   D38       -3.14020  -0.00004   0.00000  -0.00019  -0.00019  -3.14039
   D39        3.14008   0.00003   0.00000   0.00021   0.00022   3.14030
   D40       -0.00028   0.00001   0.00000   0.00012   0.00013  -0.00015
   D41        0.00201  -0.00003   0.00000  -0.00010  -0.00010   0.00191
   D42       -3.14046  -0.00002   0.00000  -0.00005  -0.00004  -3.14051
   D43       -3.14079   0.00001   0.00000   0.00003   0.00003  -3.14076
   D44       -0.00007   0.00001   0.00000   0.00008   0.00008   0.00001
   D45        3.14003   0.00001   0.00000   0.00005   0.00005   3.14009
   D46       -0.00176   0.00000   0.00000   0.00004   0.00004  -0.00172
   D47       -0.00033  -0.00001   0.00000  -0.00004  -0.00004  -0.00037
   D48        3.14106  -0.00001   0.00000  -0.00005  -0.00005   3.14101
   D49       -0.00185   0.00004   0.00000   0.00017   0.00017  -0.00168
   D50       -3.14136  -0.00002   0.00000  -0.00009  -0.00009  -3.14145
   D51        3.14064   0.00002   0.00000   0.00010   0.00010   3.14074
   D52        0.00113  -0.00003   0.00000  -0.00016  -0.00016   0.00098
   D53       -0.00178   0.00004   0.00000   0.00019   0.00019  -0.00159
   D54        3.14084   0.00002   0.00000   0.00010   0.00010   3.14094
   D55       -3.14122  -0.00001   0.00000  -0.00006  -0.00007  -3.14128
   D56        0.00140  -0.00003   0.00000  -0.00016  -0.00016   0.00124
   D57        0.00136  -0.00003   0.00000  -0.00014  -0.00014   0.00122
   D58        3.14159  -0.00000   0.00000   0.00000   0.00001  -3.14159
   D59       -3.14123  -0.00001   0.00000  -0.00005  -0.00005  -3.14129
   D60       -0.00100   0.00002   0.00000   0.00009   0.00009  -0.00091
   D61       -0.00029   0.00001   0.00000   0.00006   0.00006  -0.00022
[...]
     22          8           0       -0.119900   -2.534058   -0.001040
     23          8           0        0.575547    2.827976   -0.001048
     24          8           0       -2.730174   -2.197092    0.000099
     25          1           0       -3.691162   -2.338033    0.000612
 ---------------------------------------------------------------------
 Rotational constants (GHZ):      0.9054564      0.3991068      0.2770075
 Leave Link  202 at Sun May 30 22:08:52 2021, MaxMem=    33554432 cpu:         0.0
 (Enter /opt/app/gaussian09/e01/g09/l601.exe)
 Copying SCF densities to generalized density rwf, IOpCl= 0 IROHF=0.

 **********************************************************************

            Population analysis using the SCF density.

 **********************************************************************

 Orbital symmetries:
       Occupied  (A) (A) (A) (A) (A) (A) (A) (A) (A) (A) (A) (A)
                 (A) (A) (A) (A) (A) (A) (A) (A) (A) (A) (A) (A)
                 (A) (A) (A) (A) (A) (A) (A) (A) (A) (A) (A) (A)
                 (A) (A) (A) (A) (A) (A) (A) (A) (A) (A) (A) (A)
                 (A) (A) (A) (A) (A) (A) (A) (A) (A) (A)
       Virtual   (A) (A) (A) (A) (A) (A) (A) (A) (A) (A) (A) (A)
                 (A) (A) (A) (A) (A) (A) (A) (A) (A) (A) (A) (A)
                 (A) (A) (A) (A) (A) (A) (A) (A) (A) (A) (A) (A)
                 (A) (A) (A) (A) (A) (A) (A) (A) (A) (A) (A) (A)
                 (A) (A) (A) (A) (A) (A) (A) (A) (A) (A) (A) (A)
                 (A) (A) (A) (A) (A) (A) (A) (A) (A) (A) (A) (A)
                 (A) (A) (A) (A) (A) (A) (A) (A) (A) (A) (A) (A)
                 (A) (A) (A) (A) (A) (A) (A) (A) (A) (A) (A) (A)
                 (A) (A) (A) (A) (A) (A) (A) (A) (A) (A) (A) (A)
                 (A) (A) (A) (A) (A) (A) (A) (A) (A) (A) (A) (A)
                 (A) (A) (A) (A) (A) (A) (A) (A) (A) (A) (A) (A)
                 (A) (A) (A) (A) (A) (A) (A) (A) (A) (A) (A) (A)
                 (A) (A) (A) (A) (A) (A) (A) (A) (A) (A) (A) (A)
                 (A) (A) (A) (A) (A) (A) (A) (A) (A) (A) (A) (A)
                 (A) (A) (A) (A) (A) (A) (A) (A) (A) (A) (A) (A)
                 (A) (A) (A) (A) (A) (A) (A) (A) (A) (A) (A) (A)
                 (A) (A) (A) (A) (A) (A) (A) (A) (A) (A) (A) (A)
                 (A) (A) (A) (A) (A) (A) (A) (A) (A)
 The electronic state is 1-A.
 Alpha  occ. eigenvalues --  -19.19501 -19.14270 -19.13519 -10.28158 -10.27900
 Alpha  occ. eigenvalues --  -10.27713 -10.21612 -10.21532 -10.21510 -10.21331
 Alpha  occ. eigenvalues --  -10.20977 -10.20912 -10.20763 -10.20691 -10.20358
 Alpha  occ. eigenvalues --  -10.20169 -10.20063  -1.08075  -1.04129  -1.03445
 Alpha  occ. eigenvalues --   -0.87858  -0.86751  -0.80095  -0.76422  -0.76153
 Alpha  occ. eigenvalues --   -0.76033  -0.67688  -0.66149  -0.63779  -0.61319
 Alpha  occ. eigenvalues --   -0.58266  -0.56316  -0.54891  -0.51174  -0.49181
 Alpha  occ. eigenvalues --   -0.48461  -0.47446  -0.47163  -0.44363  -0.43826
 Alpha  occ. eigenvalues --   -0.43520  -0.43022  -0.42652  -0.41355  -0.40046
 Alpha  occ. eigenvalues --   -0.39203  -0.38582  -0.37339  -0.36403  -0.36329
 Alpha  occ. eigenvalues --   -0.35443  -0.34282  -0.27417  -0.26456  -0.26222
 Alpha  occ. eigenvalues --   -0.26215  -0.24622  -0.24007
 Alpha virt. eigenvalues --   -0.09751  -0.04897  -0.02147  -0.00257   0.05527
 Alpha virt. eigenvalues --    0.05689   0.06360   0.08925   0.10103   0.14524
 Alpha virt. eigenvalues --    0.14859   0.15146   0.16377   0.18136   0.18491
 Alpha virt. eigenvalues --    0.21436   0.21598   0.22118   0.24457   0.25788
 Alpha virt. eigenvalues --    0.26524   0.27625   0.28296   0.31905   0.33404
 Alpha virt. eigenvalues --    0.33769   0.34727   0.35726   0.39298   0.41993
 Alpha virt. eigenvalues --    0.43356   0.48586   0.48651   0.49497   0.51113
 Alpha virt. eigenvalues --    0.51686   0.52530   0.53916   0.54148   0.54888
 Alpha virt. eigenvalues --    0.55020   0.55553   0.57338   0.58503   0.58808
 Alpha virt. eigenvalues --    0.59433   0.59785   0.60022   0.60858   0.60983
 Alpha virt. eigenvalues --    0.62650   0.62707   0.63156   0.63416   0.65997
 Alpha virt. eigenvalues --    0.66633   0.69371   0.70738   0.72193   0.73516
 Alpha virt. eigenvalues --    0.74309   0.75736   0.77496   0.80874   0.81380
 Alpha virt. eigenvalues --    0.81859   0.82236   0.82485   0.83023   0.85807
 Alpha virt. eigenvalues --    0.86356   0.87847   0.87882   0.88402   0.88633
 Alpha virt. eigenvalues --    0.90815   0.92485   0.96431   0.96666   0.98577
 Alpha virt. eigenvalues --    0.99913   1.01161   1.01796   1.02515   1.04644
 Alpha virt. eigenvalues --    1.06364   1.07116   1.09328   1.11472   1.12329
 Alpha virt. eigenvalues --    1.14520   1.16943   1.19992   1.20666   1.22489
 Alpha virt. eigenvalues --    1.23166   1.24515   1.25753   1.27000   1.33047
 Alpha virt. eigenvalues --    1.33993   1.34267   1.35872   1.36312   1.38365
 Alpha virt. eigenvalues --    1.39710   1.40324   1.41151   1.43594   1.44885
 Alpha virt. eigenvalues --    1.46451   1.46672   1.47303   1.47631   1.48511
 Alpha virt. eigenvalues --    1.51850   1.58087   1.59500   1.64513   1.66437
 Alpha virt. eigenvalues --    1.69407   1.72752   1.73045   1.74891   1.75958
 Alpha virt. eigenvalues --    1.76113   1.77203   1.79529   1.79662   1.81348
 Alpha virt. eigenvalues --    1.82647   1.84584   1.86594   1.88670   1.88724
 Alpha virt. eigenvalues --    1.90585   1.91581   1.92110   1.92898   1.96507
 Alpha virt. eigenvalues --    1.96624   1.98668   2.00246   2.03026   2.04190
 Alpha virt. eigenvalues --    2.05008   2.06813   2.10220   2.12777   2.13591
 Alpha virt. eigenvalues --    2.15004   2.17645   2.19383   2.23240   2.25331
 Alpha virt. eigenvalues --    2.25694   2.27502   2.27829   2.28736   2.29030
 Alpha virt. eigenvalues --    2.29360   2.34250   2.38954   2.40268   2.43389
 Alpha virt. eigenvalues --    2.43458   2.46709   2.50737   2.53716   2.54676
 Alpha virt. eigenvalues --    2.56291   2.58501   2.60751   2.64250   2.64943
 Alpha virt. eigenvalues --    2.67017   2.68276   2.70674   2.71940   2.72785
 Alpha virt. eigenvalues --    2.75024   2.77788   2.78608   2.81527   2.84516
 Alpha virt. eigenvalues --    2.89435   2.91301   2.98123   2.99063   3.00286
 Alpha virt. eigenvalues --    3.06094   3.10681   3.18001   3.30618   3.41920
 Alpha virt. eigenvalues --    3.49173   3.90615   3.96010   4.01835   4.07788
 Alpha virt. eigenvalues --    4.08021   4.11894   4.12743   4.18215   4.19214
 Alpha virt. eigenvalues --    4.32734   4.33570   4.40908   4.43827   4.60409
 Alpha virt. eigenvalues --    4.65167   4.79060   4.91422
          Condensed to atoms (all electrons):
               1          2          3          4          5          6
     1  C    4.918428   0.480928  -0.018859  -0.035687  -0.020393   0.514721
     2  C    0.480928   5.084317   0.457894  -0.059573  -0.059207  -0.021678
     3  C   -0.018859   0.457894   5.171004   0.438755  -0.056792  -0.035569
     4  C   -0.035687  -0.059573   0.438755   5.153716   0.465416  -0.021002
     5  C   -0.020393  -0.059207  -0.056792   0.465416   5.078745   0.479458
     6  C    0.514721  -0.021678  -0.035569  -0.021002   0.479458   4.919113
     7  C    0.006989  -0.059212   0.202046   0.011815   0.010145  -0.000415
     8  C   -0.000402   0.009273   0.010924   0.231463  -0.057580   0.006515
     9  C    0.000043  -0.001715  -0.045618  -0.069520   0.015420  -0.000216
    10  C   -0.000242   0.014962  -0.052970  -0.038929  -0.001727   0.000032
    11  C   -0.000001  -0.000358   0.014897  -0.000977   0.000011   0.000001
    12  H   -0.000000  -0.000013   0.000994  -0.000017   0.000000   0.000000
    13  C   -0.000000  -0.000002  -0.000294   0.000012   0.000001  -0.000000
    14  C    0.000000   0.000001   0.000005  -0.000091  -0.000001  -0.000000
    15  C    0.000000   0.000004  -0.001119   0.007976  -0.000170   0.000000
    16  H    0.361386  -0.037538   0.002812   0.000929   0.003818  -0.040988
    17  H   -0.042893   0.355277  -0.040564   0.004929   0.000382   0.004162
    18  H    0.004126   0.000373   0.004846  -0.040379   0.354430  -0.043027
    19  H   -0.041469   0.003918   0.000905   0.002951  -0.037776   0.361518
    20  H   -0.000000  -0.000000   0.000002  -0.000000   0.000000   0.000000
    21  H    0.000000   0.000000  -0.000000   0.000002  -0.000000  -0.000000
    22  O   -0.000006  -0.000067   0.004007  -0.103428   0.001093   0.000963
    23  O    0.000893   0.002654  -0.106286   0.004271  -0.000071  -0.000005
    24  O   -0.000000  -0.000000  -0.000001   0.000088   0.000005   0.000000
    25  H    0.000000   0.000000   0.000000   0.000014  -0.000000  -0.000000
               7          8          9         10         11         12
     1  C    0.006989  -0.000402   0.000043  -0.000242  -0.000001  -0.000000
     2  C   -0.059212   0.009273  -0.001715   0.014962  -0.000358  -0.000013
     3  C    0.202046   0.010924  -0.045618  -0.052970   0.014897   0.000994
     4  C    0.011815   0.231463  -0.069520  -0.038929  -0.000977  -0.000017
     5  C    0.010145  -0.057580   0.015420  -0.001727   0.000011   0.000000
     6  C   -0.000415   0.006515  -0.000216   0.000032   0.000001   0.000000
     7  C    4.805978  -0.057487   0.022004   0.192753  -0.050452  -0.009916
     8  C   -0.057487   4.810215   0.149088   0.007865   0.009850  -0.000071
     9  C    0.022004   0.149088   5.358730   0.417259  -0.064484   0.004899
    10  C    0.192753   0.007865   0.417259   5.195112   0.465411  -0.041208
    11  C   -0.050452   0.009850  -0.064484   0.465411   5.099022   0.357145
    12  H   -0.009916  -0.000071   0.004899  -0.041208   0.357145   0.543259
    13  C    0.007235  -0.001148  -0.033207  -0.007954   0.463175  -0.043107
    14  C    0.000007   0.008410  -0.065799  -0.042887  -0.028852   0.004609
    15  C    0.009130  -0.056992   0.415385  -0.035030  -0.058078   0.000319
    16  H   -0.000138   0.000010  -0.000000   0.000002  -0.000000  -0.000000
    17  H   -0.009117  -0.000109  -0.000007   0.000776  -0.000013  -0.000010
    18  H   -0.000106  -0.008772   0.001067  -0.000038  -0.000000  -0.000000
    19  H    0.000010  -0.000124   0.000003  -0.000000  -0.000000  -0.000000
    20  H   -0.000139   0.000008   0.000912   0.002779  -0.035600  -0.003833
    21  H    0.000003  -0.000084   0.004855   0.000580   0.004197  -0.000147
    22  O   -0.000169   0.582798  -0.096136   0.004152  -0.000025   0.000000
    23  O    0.577215  -0.000149   0.004371  -0.105804   0.000652   0.019001
    24  O   -0.000040   0.002277  -0.054365   0.002741   0.000258   0.000002
    25  H    0.000003  -0.000329   0.007974   0.000003  -0.000034  -0.000001
              13         14         15         16         17         18
     1  C   -0.000000   0.000000   0.000000   0.361386  -0.042893   0.004126
     2  C   -0.000002   0.000001   0.000004  -0.037538   0.355277   0.000373
     3  C   -0.000294   0.000005  -0.001119   0.002812  -0.040564   0.004846
     4  C    0.000012  -0.000091   0.007976   0.000929   0.004929  -0.040379
     5  C    0.000001  -0.000001  -0.000170   0.003818   0.000382   0.354430
     6  C   -0.000000  -0.000000   0.000000  -0.040988   0.004162  -0.043027
     7  C    0.007235   0.000007   0.009130  -0.000138  -0.009117  -0.000106
     8  C   -0.001148   0.008410  -0.056992   0.000010  -0.000109  -0.008772
     9  C   -0.033207  -0.065799   0.415385  -0.000000  -0.000007   0.001067
    10  C   -0.007954  -0.042887  -0.035030   0.000002   0.000776  -0.000038
    11  C    0.463175  -0.028852  -0.058078  -0.000000  -0.000013  -0.000000
    12  H   -0.043107   0.004609   0.000319  -0.000000  -0.000010  -0.000000
    13  C    4.918402   0.487647   0.006524  -0.000000  -0.000000   0.000000
    14  C    0.487647   5.126103   0.461597   0.000000  -0.000000  -0.000000
    15  C    0.006524   0.461597   4.713455   0.000000   0.000000   0.000010
    16  H   -0.000000   0.000000   0.000000   0.575521  -0.004201  -0.000148
    17  H   -0.000000  -0.000000   0.000000  -0.004201   0.548794   0.000017
    18  H    0.000000  -0.000000   0.000010  -0.000148   0.000017   0.544966
    19  H    0.000000  -0.000000  -0.000000  -0.004857  -0.000152  -0.004257
    20  H    0.357482  -0.036291   0.003062  -0.000000  -0.000000   0.000000
    21  H   -0.032204   0.344787  -0.043916   0.000000  -0.000000  -0.000000
    22  O   -0.000015   0.000395  -0.001443   0.000000   0.000000   0.018153
    23  O    0.001058  -0.000006  -0.000058   0.000000   0.016402   0.000000
    24  O    0.004230  -0.068571   0.310082  -0.000000  -0.000000   0.000001
    25  H    0.000661  -0.007072  -0.031805   0.000000   0.000000  -0.000000
              19         20         21         22         23         24
     1  C   -0.041469  -0.000000   0.000000  -0.000006   0.000893  -0.000000
     2  C    0.003918  -0.000000   0.000000  -0.000067   0.002654  -0.000000
     3  C    0.000905   0.000002  -0.000000   0.004007  -0.106286  -0.000001
     4  C    0.002951  -0.000000   0.000002  -0.103428   0.004271   0.000088
     5  C   -0.037776   0.000000  -0.000000   0.001093  -0.000071   0.000005
     6  C    0.361518   0.000000  -0.000000   0.000963  -0.000005   0.000000
     7  C    0.000010  -0.000139   0.000003  -0.000169   0.577215  -0.000040
     8  C   -0.000124   0.000008  -0.000084   0.582798  -0.000149   0.002277
     9  C    0.000003   0.000912   0.004855  -0.096136   0.004371  -0.054365
    10  C   -0.000000   0.002779   0.000580   0.004152  -0.105804   0.002741
    11  C   -0.000000  -0.035600   0.004197  -0.000025   0.000652   0.000258
    12  H   -0.000000  -0.003833  -0.000147   0.000000   0.019001   0.000002
    13  C    0.000000   0.357482  -0.032204  -0.000015   0.001058   0.004230
    14  C   -0.000000  -0.036291   0.344787   0.000395  -0.000006  -0.068571
    15  C   -0.000000   0.003062  -0.043916  -0.001443  -0.000058   0.310082
    16  H   -0.004857  -0.000000   0.000000   0.000000   0.000000  -0.000000
    17  H   -0.000152  -0.000000  -0.000000   0.000000   0.016402  -0.000000
    18  H   -0.004257   0.000000  -0.000000   0.018153   0.000000   0.000001
    19  H    0.575626   0.000000  -0.000000   0.000001   0.000000   0.000000
    20  H    0.000000   0.569638  -0.005553  -0.000000   0.000002  -0.000055
    21  H   -0.000000  -0.005553   0.593761   0.000010   0.000000  -0.005510
    22  O    0.000001  -0.000000   0.000010   8.060525   0.000000  -0.009745
    23  O    0.000000   0.000002   0.000000   0.000000   8.065945   0.000000
    24  O    0.000000  -0.000055  -0.005510  -0.009745   0.000000   8.176509
    25  H   -0.000000  -0.000025   0.009266   0.000802  -0.000000   0.238348
              25
     1  C    0.000000
     2  C    0.000000
     3  C    0.000000
     4  C    0.000014
     5  C   -0.000000
     6  C   -0.000000
     7  C    0.000003
     8  C   -0.000329
     9  C    0.007974
    10  C    0.000003
    11  C   -0.000034
    12  H   -0.000001
    13  C    0.000661
    14  C   -0.007072
    15  C   -0.031805
    16  H    0.000000
    17  H    0.000000
    18  H   -0.000000
    19  H   -0.000000
    20  H   -0.000025
    21  H    0.009266
    22  O    0.000802
    23  O   -0.000000
    24  O    0.238348
    25  H    0.372143
 Mulliken charges:
               1
     1  C   -0.127561
     2  C   -0.170238
     3  C    0.048982
     4  C    0.047267
     5  C   -0.175207
     6  C   -0.123582
     7  C    0.341859
     8  C    0.354551
     9  C    0.029059
    10  C    0.022362
    11  C   -0.175743
    12  H    0.168095
    13  C   -0.128496
    14  C   -0.183990
    15  C    0.301067
    16  H    0.143392
    17  H    0.166330
    18  H    0.168737
    19  H    0.143704
    20  H    0.147611
    21  H    0.129952
    22  O   -0.461865
    23  O   -0.480084
    24  O   -0.596254
    25  H    0.410052
 Sum of Mulliken charges =  -0.00000
 Mulliken charges with hydrogens summed into heavy atoms:
               1
     1  C    0.015832
     2  C   -0.003908
     3  C    0.048982
     4  C    0.047267
     5  C   -0.006469
     6  C    0.020122
     7  C    0.341859
     8  C    0.354551
     9  C    0.029059
    10  C    0.022362
    11  C   -0.007649
    13  C    0.019116
    14  C   -0.054038
    15  C    0.301067
    22  O   -0.461865
    23  O   -0.480084
    24  O   -0.186202
 Electronic spatial extent (au):  <R**2>=           3719.9719
 Charge=             -0.0000 electrons
 Dipole moment (field-independent basis, Debye):
    X=             -1.8218    Y=             -0.0579    Z=              0.0034  Tot=              1.8227
 Quadrupole moment (field-independent basis, Debye-Ang):
   XX=            -62.1467   YY=           -104.4683   ZZ=            -96.7554
   XY=             -0.7456   XZ=             -0.0030   YZ=             -0.0013
 Traceless Quadrupole moment (field-independent basis, Debye-Ang):
   XX=             25.6434   YY=            -16.6782   ZZ=             -8.9653
   XY=             -0.7456   XZ=             -0.0030   YZ=             -0.0013
 Octapole moment (field-independent basis, Debye-Ang**2):
  XXX=            -49.3012  YYY=            -12.2929  ZZZ=             -0.0156  XYY=            -15.4092
  XXY=            -25.8927  XXZ=              0.0512  XZZ=             -4.7551  YZZ=             -4.1038
  YYZ=              0.0341  XYZ=              0.0056
 Hexadecapole moment (field-independent basis, Debye-Ang**3):
 XXXX=          -2711.4644 YYYY=          -1510.2215 ZZZZ=            -93.4140 XXXY=            127.5760
 XXXZ=             -0.0385 YYYX=             -0.6813 YYYZ=             -0.0011 ZZZX=             -0.0072
 ZZZY=             -0.0052 XXYY=           -656.7275 XXZZ=           -631.6854 YYZZ=           -251.6658
 XXYZ=             -0.0282 YYXZ=             -0.0171 ZZXY=             18.6363
 N-N= 1.100786002768D+03 E-N=-3.980766477761D+03  KE= 7.569547918328D+02
 No NMR shielding tensors so no spin-rotation constants.
 Leave Link  601 at Sun May 30 22:08:53 2021, MaxMem=    33554432 cpu:         0.2
 (Enter /opt/app/gaussian09/e01/g09/l9999.exe)
 1\1\GINC-NB-0160\FOpt\RB3LYP\6-31G(d)\C14H8O3\ROOT\30-May-2021\0\\#p o
 pt b3lyp/6-31g(d) geom=connectivity int=ultrafine\\1-hydroxy_anthraqui
 none opt\\0,1\C,-3.3208917514,-3.2318688537,-0.0135570336\C,-1.9299241
 776,-3.2093269605,-0.0091328381\C,-1.2486134596,-1.9854299792,-0.01076
 63495\C,-1.9688510634,-0.7788272509,-0.0168806797\C,-3.3683346542,-0.8
 111479433,-0.0212876873\C,-4.0403146499,-2.0302864305,-0.0196313112\C,
 0.2360323017,-1.9797776004,-0.0060109055\C,-1.2846612628,0.5550121998,
 -0.0191816065\C,0.2057531736,0.564049463,-0.0131786904\C,0.9309821787,
 -0.6529353612,-0.0068611013\C,2.3260457135,-0.6696223232,-0.0012501571
 \H,2.8308713956,-1.6286379866,0.0032969384\C,3.0305794426,0.5314650593
 ,-0.0017065233\C,2.3447232009,1.7402217399,-0.007739134\C,0.9416285897
 ,1.7746060319,-0.0135183252\H,-3.8484029835,-4.1817134167,-0.012300527
 6\H,-1.3463388731,-4.1239700011,-0.0044367058\H,-3.9035571898,0.132349
 0736,-0.0260250117\H,-5.1267690372,-2.0485221593,-0.0230440922\H,4.116
 8901168,0.5303912572,0.002698726\H,2.8937683473,2.6805270013,-0.008073
 4511\O,-1.9544117125,1.5803220029,-0.0246127531\O,0.8775877021,-3.0255
 733711,-0.000889924\O,0.2867791996,2.960218315,-0.0194515918\H,0.94520
 73129,3.6742455438,-0.0186632546\\Version=ES64L-G09RevE.01\State=1-A\H
 F=-763.9872552\RMSD=3.129e-09\RMSF=7.295e-05\Dipole=0.5428878,0.468534
 7,0.0019181\Quadrupole=7.1587033,-0.493158,-6.6655453,15.2702332,0.006
 1013,0.0390156\PG=C01 [X(C14H8O3)]\\@


 THIS CURIOUS WORLD WHICH WE INHABIT IS MORE WONDERFUL THAN IT IS CONVENIENT;
 MORE BEAUTIFUL THAN IT IS USEFUL;
 IT IS MORE TO BE ADMIRED THAN IT IS TO BE USED.

                                                                 -- THOREAU
 Job cpu time:       0 days  0 hours 51 minutes  2.0 seconds.
 File lengths (MBytes):  RWF=     47 Int=      0 D2E=      0 Chk=      6 Scr=      1
 Normal termination of Gaussian 09 at Sun May 30 22:08:54 2021.
