1-hydroxy_anthraquinone opt                                             
FOpt      RB3LYP                                                      6-31G(d)            
Number of atoms                            I               25
Info1-9                                    I   N=           9
          58          58           0           0           0         110
           2          18        -502
Charge                                     I                0
Multiplicity                               I                1
Number of electrons                        I              116
Number of alpha electrons                  I               58
Number of beta electrons                   I               58
Number of basis functions                  I              271
Number of independent functions            I              271
Number of point charges in /Mol/           I                0
Number of translation vectors              I                0
Atomic numbers                             I   N=          25
           6           6           6           6           6           6
           6           6           6           6           6           1
           6           6           6           1           1           1
           1           1           1           8           8           8
           1
Nuclear charges                            R   N=          25
  6.00000000E+00  6.00000000E+00  6.00000000E+00  6.00000000E+00  6.00000000E+00
  6.00000000E+00  6.00000000E+00  6.00000000E+00  6.00000000E+00  6.00000000E+00
  6.00000000E+00  1.00000000E+00  6.00000000E+00  6.00000000E+00  6.00000000E+00
  1.00000000E+00  1.00000000E+00  1.00000000E+00  1.00000000E+00  1.00000000E+00
  1.00000000E+00  8.00000000E+00  8.00000000E+00  8.00000000E+00  1.00000000E+00
Current cartesian coordinates              R   N=          75
  7.50079538E+00  6.56695534E-01  1.52108146E-03  5.43053891E+00  2.27693782E+00
  5.36967068E-04  2.97487584E+00  1.28873599E+00 -3.95590756E-04  2.59877589E+00
 -1.33999422E+00 -3.49877621E-04  4.69316648E+00 -2.95599277E+00  6.70421339E-04
  7.12946577E+00 -1.96369074E+00  1.60907310E-03  7.87072601E-01  3.04514013E+00
 -1.48523700E-03  8.20351627E-03 -2.48629388E+00 -1.95307341E-03 -2.19210004E+00
 -7.27994959E-01 -7.05851402E-04 -1.81099280E+00  1.92192196E+00 -4.59066949E-04
 -3.84064016E+00  3.60467325E+00  5.53818964E-04 -3.44236752E+00  5.61362390E+00
  3.87118141E-04 -6.30330984E+00  2.67759378E+00  1.56102464E-03 -6.73247946E+00
  8.65660271E-02  1.53905109E-03 -4.71206901E+00 -1.63173132E+00  3.61123293E-04
  9.40476724E+00  1.42509727E+00  2.21514144E-03  5.66036380E+00  4.31431745E+00
  3.61977897E-04  4.35799579E+00 -4.97827698E+00  5.98457398E-04  8.74724515E+00
 -3.22830255E+00  2.45524941E-03 -7.89792800E+00  3.97041053E+00  2.48413178E-03
 -8.65674951E+00 -6.42218334E-01  2.38811155E-03 -2.26577616E-01 -4.78867494E+00
 -1.96623544E-03  1.08762555E+00  5.34410108E+00 -1.97994248E-03 -5.15928049E+00
 -4.15190217E+00  1.87336086E-04 -6.97528505E+00 -4.41824268E+00  1.15736417E-03
Force Field                                I                0
Int Atom Types                             I   N=          25
           0           0           0           0           0           0
           0           0           0           0           0           0
           0           0           0           0           0           0
           0           0           0           0           0           0
           0
MM charges                                 R   N=          25
  0.00000000E+00  0.00000000E+00  0.00000000E+00  0.00000000E+00  0.00000000E+00
  0.00000000E+00  0.00000000E+00  0.00000000E+00  0.00000000E+00  0.00000000E+00
  0.00000000E+00  0.00000000E+00  0.00000000E+00  0.00000000E+00  0.00000000E+00
  0.00000000E+00  0.00000000E+00  0.00000000E+00  0.00000000E+00  0.00000000E+00
  0.00000000E+00  0.00000000E+00  0.00000000E+00  0.00000000E+00  0.00000000E+00
Integer atomic weights                     I   N=          25
          12          12          12          12          12          12
          12          12          12          12          12           1
          12          12          12           1           1           1
           1           1           1          16          16          16
           1
Real atomic weights                        R   N=          25
  1.20000000E+01  1.20000000E+01  1.20000000E+01  1.20000000E+01  1.20000000E+01
  1.20000000E+01  1.20000000E+01  1.20000000E+01  1.20000000E+01  1.20000000E+01
  1.20000000E+01  1.00782504E+00  1.20000000E+01  1.20000000E+01  1.20000000E+01
  1.00782504E+00  1.00782504E+00  1.00782504E+00  1.00782504E+00  1.00782504E+00
  1.00782504E+00  1.59949146E+01  1.59949146E+01  1.59949146E+01  1.00782504E+00
Atom fragment info                         I   N=          25
           0           0           0           0           0           0
           0           0           0           0           0           0
           0           0           0           0           0           0
           0           0           0           0           0           0
           0
Atom residue num                           I   N=          25
           0           0           0           0           0           0
           0           0           0           0           0           0
           0           0           0           0           0           0
           0           0           0           0           0           0
           0
Nuclear spins                              I   N=          25
           0           0           0           0           0           0
           0           0           0           0           0           1
           0           0           0           1           1           1
           1           1           1           0           0           0
           1
Nuclear ZEff                               R   N=          25
 -3.60000000E+00 -3.60000000E+00 -3.60000000E+00 -3.60000000E+00 -3.60000000E+00
 -3.60000000E+00 -3.60000000E+00 -3.60000000E+00 -3.60000000E+00 -3.60000000E+00
 -3.60000000E+00 -1.00000000E+00 -3.60000000E+00 -3.60000000E+00 -3.60000000E+00
 -1.00000000E+00 -1.00000000E+00 -1.00000000E+00 -1.00000000E+00 -1.00000000E+00
 -1.00000000E+00 -5.60000000E+00 -5.60000000E+00 -5.60000000E+00 -1.00000000E+00
Nuclear ZNuc                               R   N=          25
  6.00000000E+00  6.00000000E+00  6.00000000E+00  6.00000000E+00  6.00000000E+00
  6.00000000E+00  6.00000000E+00  6.00000000E+00  6.00000000E+00  6.00000000E+00
  6.00000000E+00  1.00000000E+00  6.00000000E+00  6.00000000E+00  6.00000000E+00
  1.00000000E+00  1.00000000E+00  1.00000000E+00  1.00000000E+00  1.00000000E+00
  1.00000000E+00  8.00000000E+00  8.00000000E+00  8.00000000E+00  1.00000000E+00
Nuclear QMom                               R   N=          25
  0.00000000E+00  0.00000000E+00  0.00000000E+00  0.00000000E+00  0.00000000E+00
  0.00000000E+00  0.00000000E+00  0.00000000E+00  0.00000000E+00  0.00000000E+00
  0.00000000E+00  0.00000000E+00  0.00000000E+00  0.00000000E+00  0.00000000E+00
  0.00000000E+00  0.00000000E+00  0.00000000E+00  0.00000000E+00  0.00000000E+00
  0.00000000E+00  0.00000000E+00  0.00000000E+00  0.00000000E+00  0.00000000E+00
Nuclear GFac                               R   N=          25
  0.00000000E+00  0.00000000E+00  0.00000000E+00  0.00000000E+00  0.00000000E+00
  0.00000000E+00  0.00000000E+00  0.00000000E+00  0.00000000E+00  0.00000000E+00
  0.00000000E+00  2.79284600E+00  0.00000000E+00  0.00000000E+00  0.00000000E+00
  2.79284600E+00  2.79284600E+00  2.79284600E+00  2.79284600E+00  2.79284600E+00
  2.79284600E+00  0.00000000E+00  0.00000000E+00  0.00000000E+00  2.79284600E+00
MicOpt                                     I   N=          25
          -1          -1          -1          -1          -1          -1
          -1          -1          -1          -1          -1          -1
          -1          -1          -1          -1          -1          -1
          -1          -1          -1          -1          -1          -1
          -1
SymInf integers                            I   N=          26
           1           1           1           1           1           0
           0           0           0           0           0           0
           0           0           0           0           0           0
           0           0           0           0           0           0
           0           0
RotTr to input orientation                 R   N=          12
 -7.77408177E-01 -6.28995721E-01 -9.53393854E-04  6.28986126E-01 -7.77403214E-01
  4.54922818E-03 -3.60261651E-03  2.93693568E-03  9.99989198E-01 -8.57443161E-01
 -8.78866081E-01 -2.29763913E-02
Number of contracted shells                I               84
Number of primitive shells                 I              219
Pure/Cartesian d shells                    I                1
Pure/Cartesian f shells                    I                0
Highest angular momentum                   I                2
Largest degree of contraction              I                6
Shell types                                I   N=          84
           0          -1          -1           2           0          -1
          -1           2           0          -1          -1           2
           0          -1          -1           2           0          -1
          -1           2           0          -1          -1           2
           0          -1          -1           2           0          -1
          -1           2           0          -1          -1           2
           0          -1          -1           2           0          -1
          -1           2           0           0           0          -1
          -1           2           0          -1          -1           2
           0          -1          -1           2           0           0
           0           0           0           0           0           0
           0           0           0           0           0          -1
          -1           2           0          -1          -1           2
           0          -1          -1           2           0           0
Number of primitives per shell             I   N=          84
           6           3           1           1           6           3
           1           1           6           3           1           1
           6           3           1           1           6           3
           1           1           6           3           1           1
           6           3           1           1           6           3
           1           1           6           3           1           1
           6           3           1           1           6           3
           1           1           3           1           6           3
           1           1           6           3           1           1
           6           3           1           1           3           1
           3           1           3           1           3           1
           3           1           3           1           6           3
           1           1           6           3           1           1
           6           3           1           1           3           1
Shell to atom map                          I   N=          84
           1           1           1           1           2           2
           2           2           3           3           3           3
           4           4           4           4           5           5
           5           5           6           6           6           6
           7           7           7           7           8           8
           8           8           9           9           9           9
          10          10          10          10          11          11
          11          11          12          12          13          13
          13          13          14          14          14          14
          15          15          15          15          16          16
          17          17          18          18          19          19
          20          20          21          21          22          22
          22          22          23          23          23          23
          24          24          24          24          25          25
Primitive exponents                        R   N=         219
  3.04752488E+03  4.57369518E+02  1.03948685E+02  2.92101553E+01  9.28666296E+00
  3.16392696E+00  7.86827235E+00  1.88128854E+00  5.44249258E-01  1.68714478E-01
  8.00000000E-01  3.04752488E+03  4.57369518E+02  1.03948685E+02  2.92101553E+01
  9.28666296E+00  3.16392696E+00  7.86827235E+00  1.88128854E+00  5.44249258E-01
  1.68714478E-01  8.00000000E-01  3.04752488E+03  4.57369518E+02  1.03948685E+02
  2.92101553E+01  9.28666296E+00  3.16392696E+00  7.86827235E+00  1.88128854E+00
  5.44249258E-01  1.68714478E-01  8.00000000E-01  3.04752488E+03  4.57369518E+02
  1.03948685E+02  2.92101553E+01  9.28666296E+00  3.16392696E+00  7.86827235E+00
  1.88128854E+00  5.44249258E-01  1.68714478E-01  8.00000000E-01  3.04752488E+03
  4.57369518E+02  1.03948685E+02  2.92101553E+01  9.28666296E+00  3.16392696E+00
  7.86827235E+00  1.88128854E+00  5.44249258E-01  1.68714478E-01  8.00000000E-01
  3.04752488E+03  4.57369518E+02  1.03948685E+02  2.92101553E+01  9.28666296E+00
  3.16392696E+00  7.86827235E+00  1.88128854E+00  5.44249258E-01  1.68714478E-01
  8.00000000E-01  3.04752488E+03  4.57369518E+02  1.03948685E+02  2.92101553E+01
  9.28666296E+00  3.16392696E+00  7.86827235E+00  1.88128854E+00  5.44249258E-01
  1.68714478E-01  8.00000000E-01  3.04752488E+03  4.57369518E+02  1.03948685E+02
  2.92101553E+01  9.28666296E+00  3.16392696E+00  7.86827235E+00  1.88128854E+00
  5.44249258E-01  1.68714478E-01  8.00000000E-01  3.04752488E+03  4.57369518E+02
  1.03948685E+02  2.92101553E+01  9.28666296E+00  3.16392696E+00  7.86827235E+00
  1.88128854E+00  5.44249258E-01  1.68714478E-01  8.00000000E-01  3.04752488E+03
  4.57369518E+02  1.03948685E+02  2.92101553E+01  9.28666296E+00  3.16392696E+00
  7.86827235E+00  1.88128854E+00  5.44249258E-01  1.68714478E-01  8.00000000E-01
  3.04752488E+03  4.57369518E+02  1.03948685E+02  2.92101553E+01  9.28666296E+00
  3.16392696E+00  7.86827235E+00  1.88128854E+00  5.44249258E-01  1.68714478E-01
  8.00000000E-01  1.87311370E+01  2.82539436E+00  6.40121692E-01  1.61277759E-01
  3.04752488E+03  4.57369518E+02  1.03948685E+02  2.92101553E+01  9.28666296E+00
  3.16392696E+00  7.86827235E+00  1.88128854E+00  5.44249258E-01  1.68714478E-01
  8.00000000E-01  3.04752488E+03  4.57369518E+02  1.03948685E+02  2.92101553E+01
  9.28666296E+00  3.16392696E+00  7.86827235E+00  1.88128854E+00  5.44249258E-01
  1.68714478E-01  8.00000000E-01  3.04752488E+03  4.57369518E+02  1.03948685E+02
  2.92101553E+01  9.28666296E+00  3.16392696E+00  7.86827235E+00  1.88128854E+00
  5.44249258E-01  1.68714478E-01  8.00000000E-01  1.87311370E+01  2.82539436E+00
  6.40121692E-01  1.61277759E-01  1.87311370E+01  2.82539436E+00  6.40121692E-01
  1.61277759E-01  1.87311370E+01  2.82539436E+00  6.40121692E-01  1.61277759E-01
  1.87311370E+01  2.82539436E+00  6.40121692E-01  1.61277759E-01  1.87311370E+01
  2.82539436E+00  6.40121692E-01  1.61277759E-01  1.87311370E+01  2.82539436E+00
  6.40121692E-01  1.61277759E-01  5.48467166E+03  8.25234946E+02  1.88046958E+02
  5.29645000E+01  1.68975704E+01  5.79963534E+00  1.55396162E+01  3.59993359E+00
  1.01376175E+00  2.70005823E-01  8.00000000E-01  5.48467166E+03  8.25234946E+02
  1.88046958E+02  5.29645000E+01  1.68975704E+01  5.79963534E+00  1.55396162E+01
  3.59993359E+00  1.01376175E+00  2.70005823E-01  8.00000000E-01  5.48467166E+03
  8.25234946E+02  1.88046958E+02  5.29645000E+01  1.68975704E+01  5.79963534E+00
  1.55396162E+01  3.59993359E+00  1.01376175E+00  2.70005823E-01  8.00000000E-01
  1.87311370E+01  2.82539436E+00  6.40121692E-01  1.61277759E-01
Contraction coefficients                   R   N=         219
  1.83473713E-03  1.40373228E-02  6.88426223E-02  2.32184443E-01  4.67941348E-01
  3.62311985E-01 -1.19332420E-01 -1.60854152E-01  1.14345644E+00  1.00000000E+00
  1.00000000E+00  1.83473713E-03  1.40373228E-02  6.88426223E-02  2.32184443E-01
  4.67941348E-01  3.62311985E-01 -1.19332420E-01 -1.60854152E-01  1.14345644E+00
  1.00000000E+00  1.00000000E+00  1.83473713E-03  1.40373228E-02  6.88426223E-02
  2.32184443E-01  4.67941348E-01  3.62311985E-01 -1.19332420E-01 -1.60854152E-01
  1.14345644E+00  1.00000000E+00  1.00000000E+00  1.83473713E-03  1.40373228E-02
  6.88426223E-02  2.32184443E-01  4.67941348E-01  3.62311985E-01 -1.19332420E-01
 -1.60854152E-01  1.14345644E+00  1.00000000E+00  1.00000000E+00  1.83473713E-03
  1.40373228E-02  6.88426223E-02  2.32184443E-01  4.67941348E-01  3.62311985E-01
 -1.19332420E-01 -1.60854152E-01  1.14345644E+00  1.00000000E+00  1.00000000E+00
  1.83473713E-03  1.40373228E-02  6.88426223E-02  2.32184443E-01  4.67941348E-01
  3.62311985E-01 -1.19332420E-01 -1.60854152E-01  1.14345644E+00  1.00000000E+00
  1.00000000E+00  1.83473713E-03  1.40373228E-02  6.88426223E-02  2.32184443E-01
  4.67941348E-01  3.62311985E-01 -1.19332420E-01 -1.60854152E-01  1.14345644E+00
  1.00000000E+00  1.00000000E+00  1.83473713E-03  1.40373228E-02  6.88426223E-02
  2.32184443E-01  4.67941348E-01  3.62311985E-01 -1.19332420E-01 -1.60854152E-01
  1.14345644E+00  1.00000000E+00  1.00000000E+00  1.83473713E-03  1.40373228E-02
  6.88426223E-02  2.32184443E-01  4.67941348E-01  3.62311985E-01 -1.19332420E-01
 -1.60854152E-01  1.14345644E+00  1.00000000E+00  1.00000000E+00  1.83473713E-03
  1.40373228E-02  6.88426223E-02  2.32184443E-01  4.67941348E-01  3.62311985E-01
 -1.19332420E-01 -1.60854152E-01  1.14345644E+00  1.00000000E+00  1.00000000E+00
  1.83473713E-03  1.40373228E-02  6.88426223E-02  2.32184443E-01  4.67941348E-01
  3.62311985E-01 -1.19332420E-01 -1.60854152E-01  1.14345644E+00  1.00000000E+00
  1.00000000E+00  3.34946043E-02  2.34726953E-01  8.13757326E-01  1.00000000E+00
  1.83473713E-03  1.40373228E-02  6.88426223E-02  2.32184443E-01  4.67941348E-01
  3.62311985E-01 -1.19332420E-01 -1.60854152E-01  1.14345644E+00  1.00000000E+00
  1.00000000E+00  1.83473713E-03  1.40373228E-02  6.88426223E-02  2.32184443E-01
  4.67941348E-01  3.62311985E-01 -1.19332420E-01 -1.60854152E-01  1.14345644E+00
  1.00000000E+00  1.00000000E+00  1.83473713E-03  1.40373228E-02  6.88426223E-02
  2.32184443E-01  4.67941348E-01  3.62311985E-01 -1.19332420E-01 -1.60854152E-01
  1.14345644E+00  1.00000000E+00  1.00000000E+00  3.34946043E-02  2.34726953E-01
  8.13757326E-01  1.00000000E+00  3.34946043E-02  2.34726953E-01  8.13757326E-01
  1.00000000E+00  3.34946043E-02  2.34726953E-01  8.13757326E-01  1.00000000E+00
  3.34946043E-02  2.34726953E-01  8.13757326E-01  1.00000000E+00  3.34946043E-02
  2.34726953E-01  8.13757326E-01  1.00000000E+00  3.34946043E-02  2.34726953E-01
  8.13757326E-01  1.00000000E+00  1.83107443E-03  1.39501722E-02  6.84450781E-02
  2.32714336E-01  4.70192898E-01  3.58520853E-01 -1.10777550E-01 -1.48026263E-01
  1.13076702E+00  1.00000000E+00  1.00000000E+00  1.83107443E-03  1.39501722E-02
  6.84450781E-02  2.32714336E-01  4.70192898E-01  3.58520853E-01 -1.10777550E-01
 -1.48026263E-01  1.13076702E+00  1.00000000E+00  1.00000000E+00  1.83107443E-03
  1.39501722E-02  6.84450781E-02  2.32714336E-01  4.70192898E-01  3.58520853E-01
 -1.10777550E-01 -1.48026263E-01  1.13076702E+00  1.00000000E+00  1.00000000E+00
  3.34946043E-02  2.34726953E-01  8.13757326E-01  1.00000000E+00
P(S=P) Contraction coefficients            R   N=         219
  0.00000000E+00  0.00000000E+00  0.00000000E+00  0.00000000E+00  0.00000000E+00
  0.00000000E+00  6.89990666E-02  3.16423961E-01  7.44308291E-01  1.00000000E+00
  0.00000000E+00  0.00000000E+00  0.00000000E+00  0.00000000E+00  0.00000000E+00
  0.00000000E+00  0.00000000E+00  6.89990666E-02  3.16423961E-01  7.44308291E-01
  1.00000000E+00  0.00000000E+00  0.00000000E+00  0.00000000E+00  0.00000000E+00
  0.00000000E+00  0.00000000E+00  0.00000000E+00  6.89990666E-02  3.16423961E-01
  7.44308291E-01  1.00000000E+00  0.00000000E+00  0.00000000E+00  0.00000000E+00
  0.00000000E+00  0.00000000E+00  0.00000000E+00  0.00000000E+00  6.89990666E-02
  3.16423961E-01  7.44308291E-01  1.00000000E+00  0.00000000E+00  0.00000000E+00
  0.00000000E+00  0.00000000E+00  0.00000000E+00  0.00000000E+00  0.00000000E+00
  6.89990666E-02  3.16423961E-01  7.44308291E-01  1.00000000E+00  0.00000000E+00
  0.00000000E+00  0.00000000E+00  0.00000000E+00  0.00000000E+00  0.00000000E+00
  0.00000000E+00  6.89990666E-02  3.16423961E-01  7.44308291E-01  1.00000000E+00
  0.00000000E+00  0.00000000E+00  0.00000000E+00  0.00000000E+00  0.00000000E+00
  0.00000000E+00  0.00000000E+00  6.89990666E-02  3.16423961E-01  7.44308291E-01
  1.00000000E+00  0.00000000E+00  0.00000000E+00  0.00000000E+00  0.00000000E+00
  0.00000000E+00  0.00000000E+00  0.00000000E+00  6.89990666E-02  3.16423961E-01
  7.44308291E-01  1.00000000E+00  0.00000000E+00  0.00000000E+00  0.00000000E+00
  0.00000000E+00  0.00000000E+00  0.00000000E+00  0.00000000E+00  6.89990666E-02
  3.16423961E-01  7.44308291E-01  1.00000000E+00  0.00000000E+00  0.00000000E+00
  0.00000000E+00  0.00000000E+00  0.00000000E+00  0.00000000E+00  0.00000000E+00
  6.89990666E-02  3.16423961E-01  7.44308291E-01  1.00000000E+00  0.00000000E+00
  0.00000000E+00  0.00000000E+00  0.00000000E+00  0.00000000E+00  0.00000000E+00
  0.00000000E+00  6.89990666E-02  3.16423961E-01  7.44308291E-01  1.00000000E+00
  0.00000000E+00  0.00000000E+00  0.00000000E+00  0.00000000E+00  0.00000000E+00
  0.00000000E+00  0.00000000E+00  0.00000000E+00  0.00000000E+00  0.00000000E+00
  0.00000000E+00  6.89990666E-02  3.16423961E-01  7.44308291E-01  1.00000000E+00
  0.00000000E+00  0.00000000E+00  0.00000000E+00  0.00000000E+00  0.00000000E+00
  0.00000000E+00  0.00000000E+00  6.89990666E-02  3.16423961E-01  7.44308291E-01
  1.00000000E+00  0.00000000E+00  0.00000000E+00  0.00000000E+00  0.00000000E+00
  0.00000000E+00  0.00000000E+00  0.00000000E+00  6.89990666E-02  3.16423961E-01
  7.44308291E-01  1.00000000E+00  0.00000000E+00  0.00000000E+00  0.00000000E+00
  0.00000000E+00  0.00000000E+00  0.00000000E+00  0.00000000E+00  0.00000000E+00
  0.00000000E+00  0.00000000E+00  0.00000000E+00  0.00000000E+00  0.00000000E+00
  0.00000000E+00  0.00000000E+00  0.00000000E+00  0.00000000E+00  0.00000000E+00
  0.00000000E+00  0.00000000E+00  0.00000000E+00  0.00000000E+00  0.00000000E+00
  0.00000000E+00  0.00000000E+00  0.00000000E+00  0.00000000E+00  0.00000000E+00
  0.00000000E+00  0.00000000E+00  0.00000000E+00  7.08742682E-02  3.39752839E-01
  7.27158577E-01  1.00000000E+00  0.00000000E+00  0.00000000E+00  0.00000000E+00
  0.00000000E+00  0.00000000E+00  0.00000000E+00  0.00000000E+00  7.08742682E-02
  3.39752839E-01  7.27158577E-01  1.00000000E+00  0.00000000E+00  0.00000000E+00
  0.00000000E+00  0.00000000E+00  0.00000000E+00  0.00000000E+00  0.00000000E+00
  7.08742682E-02  3.39752839E-01  7.27158577E-01  1.00000000E+00  0.00000000E+00
  0.00000000E+00  0.00000000E+00  0.00000000E+00  0.00000000E+00
Coordinates of each shell                  R   N=         252
  7.50079538E+00  6.56695534E-01  1.52108146E-03  7.50079538E+00  6.56695534E-01
  1.52108146E-03  7.50079538E+00  6.56695534E-01  1.52108146E-03  7.50079538E+00
  6.56695534E-01  1.52108146E-03  5.43053891E+00  2.27693782E+00  5.36967068E-04
  5.43053891E+00  2.27693782E+00  5.36967068E-04  5.43053891E+00  2.27693782E+00
  5.36967068E-04  5.43053891E+00  2.27693782E+00  5.36967068E-04  2.97487584E+00
  1.28873599E+00 -3.95590756E-04  2.97487584E+00  1.28873599E+00 -3.95590756E-04
  2.97487584E+00  1.28873599E+00 -3.95590756E-04  2.97487584E+00  1.28873599E+00
 -3.95590756E-04  2.59877589E+00 -1.33999422E+00 -3.49877621E-04  2.59877589E+00
 -1.33999422E+00 -3.49877621E-04  2.59877589E+00 -1.33999422E+00 -3.49877621E-04
  2.59877589E+00 -1.33999422E+00 -3.49877621E-04  4.69316648E+00 -2.95599277E+00
  6.70421339E-04  4.69316648E+00 -2.95599277E+00  6.70421339E-04  4.69316648E+00
 -2.95599277E+00  6.70421339E-04  4.69316648E+00 -2.95599277E+00  6.70421339E-04
  7.12946577E+00 -1.96369074E+00  1.60907310E-03  7.12946577E+00 -1.96369074E+00
  1.60907310E-03  7.12946577E+00 -1.96369074E+00  1.60907310E-03  7.12946577E+00
 -1.96369074E+00  1.60907310E-03  7.87072601E-01  3.04514013E+00 -1.48523700E-03
  7.87072601E-01  3.04514013E+00 -1.48523700E-03  7.87072601E-01  3.04514013E+00
 -1.48523700E-03  7.87072601E-01  3.04514013E+00 -1.48523700E-03  8.20351627E-03
 -2.48629388E+00 -1.95307341E-03  8.20351627E-03 -2.48629388E+00 -1.95307341E-03
  8.20351627E-03 -2.48629388E+00 -1.95307341E-03  8.20351627E-03 -2.48629388E+00
 -1.95307341E-03 -2.19210004E+00 -7.27994959E-01 -7.05851402E-04 -2.19210004E+00
 -7.27994959E-01 -7.05851402E-04 -2.19210004E+00 -7.27994959E-01 -7.05851402E-04
 -2.19210004E+00 -7.27994959E-01 -7.05851402E-04 -1.81099280E+00  1.92192196E+00
 -4.59066949E-04 -1.81099280E+00  1.92192196E+00 -4.59066949E-04 -1.81099280E+00
  1.92192196E+00 -4.59066949E-04 -1.81099280E+00  1.92192196E+00 -4.59066949E-04
 -3.84064016E+00  3.60467325E+00  5.53818964E-04 -3.84064016E+00  3.60467325E+00
  5.53818964E-04 -3.84064016E+00  3.60467325E+00  5.53818964E-04 -3.84064016E+00
  3.60467325E+00  5.53818964E-04 -3.44236752E+00  5.61362390E+00  3.87118141E-04
 -3.44236752E+00  5.61362390E+00  3.87118141E-04 -6.30330984E+00  2.67759378E+00
  1.56102464E-03 -6.30330984E+00  2.67759378E+00  1.56102464E-03 -6.30330984E+00
  2.67759378E+00  1.56102464E-03 -6.30330984E+00  2.67759378E+00  1.56102464E-03
 -6.73247946E+00  8.65660271E-02  1.53905109E-03 -6.73247946E+00  8.65660271E-02
  1.53905109E-03 -6.73247946E+00  8.65660271E-02  1.53905109E-03 -6.73247946E+00
  8.65660271E-02  1.53905109E-03 -4.71206901E+00 -1.63173132E+00  3.61123293E-04
 -4.71206901E+00 -1.63173132E+00  3.61123293E-04 -4.71206901E+00 -1.63173132E+00
  3.61123293E-04 -4.71206901E+00 -1.63173132E+00  3.61123293E-04  9.40476724E+00
  1.42509727E+00  2.21514144E-03  9.40476724E+00  1.42509727E+00  2.21514144E-03
  5.66036380E+00  4.31431745E+00  3.61977897E-04  5.66036380E+00  4.31431745E+00
  3.61977897E-04  4.35799579E+00 -4.97827698E+00  5.98457398E-04  4.35799579E+00
 -4.97827698E+00  5.98457398E-04  8.74724515E+00 -3.22830255E+00  2.45524941E-03
  8.74724515E+00 -3.22830255E+00  2.45524941E-03 -7.89792800E+00  3.97041053E+00
  2.48413178E-03 -7.89792800E+00  3.97041053E+00  2.48413178E-03 -8.65674951E+00
 -6.42218334E-01  2.38811155E-03 -8.65674951E+00 -6.42218334E-01  2.38811155E-03
 -2.26577616E-01 -4.78867494E+00 -1.96623544E-03 -2.26577616E-01 -4.78867494E+00
 -1.96623544E-03 -2.26577616E-01 -4.78867494E+00 -1.96623544E-03 -2.26577616E-01
 -4.78867494E+00 -1.96623544E-03  1.08762555E+00  5.34410108E+00 -1.97994248E-03
  1.08762555E+00  5.34410108E+00 -1.97994248E-03  1.08762555E+00  5.34410108E+00
 -1.97994248E-03  1.08762555E+00  5.34410108E+00 -1.97994248E-03 -5.15928049E+00
 -4.15190217E+00  1.87336086E-04 -5.15928049E+00 -4.15190217E+00  1.87336086E-04
 -5.15928049E+00 -4.15190217E+00  1.87336086E-04 -5.15928049E+00 -4.15190217E+00
  1.87336086E-04 -6.97528505E+00 -4.41824268E+00  1.15736417E-03 -6.97528505E+00
 -4.41824268E+00  1.15736417E-03
Constraint Structure                       R   N=          75
  7.41324798E+00  5.68602506E-01  3.64460109E-03  5.42331724E+00  2.20875894E+00
 -5.57330921E-03  2.87475459E+00  1.29424047E+00 -3.75961100E-03  2.45004331E+00
 -1.37214295E+00 -2.52926867E-03  4.58844651E+00 -3.03307722E+00  4.46081966E-03
  6.98943947E+00 -2.09223377E+00  8.76437202E-03  8.07319353E-01  2.94226067E+00
 -3.83131339E-03 -2.70000785E-02 -2.29651196E+00 -3.85830178E-03 -2.09448889E+00
 -6.48430167E-01 -2.55270611E-03 -1.66979293E+00  2.01787167E+00 -1.88396617E-04
 -3.80828139E+00  3.67859188E+00  3.80182983E-03 -3.45581925E+00  5.72810259E+00
  7.33882104E-03 -6.20928937E+00  2.73764040E+00  7.83820172E-03 -6.63304037E+00
  7.68920565E-02  4.02857701E-03 -4.64289353E+00 -1.56313986E+00 -6.75638864E-04
  9.37216761E+00  1.26399989E+00  6.82751279E-03  5.72500298E+00  4.26631866E+00
 -8.72350540E-03  4.23587498E+00 -5.08253008E+00  4.69729083E-03  8.63608207E+00
 -3.36088891E+00  1.32878509E-02 -7.85563806E+00  4.00672612E+00  1.22496549E-02
 -8.59214793E+00 -6.18078187E-01  7.45578695E-03 -4.51351123E-01 -4.96529357E+00
 -2.66515783E-03  1.23289575E+00  5.61084721E+00 -4.89728531E-03 -5.03431216E+00
 -4.23694771E+00 -4.35535851E-03 -6.81407345E+00 -4.58843363E+00 -5.21013300E-03
Num ILSW                                   I              100
ILSW                                       I   N=         100
           0           1           0           0           2           0
           0           0           0           0         402          -1
           5           0           0           0           2           0
           0           0           0           0           1           0
           1           0           0           0           0           0
           0           0      100000           0          -1           0
           0           0           0           0           0           0
           0           0           0           1           0           0
           0           0           1           0           0           0
           0           0           4          41           0           0
           0           0           5           0           0           0
           0           0           0          25           0           0
           0           0           0           0           0           0
           0           0           0           0           0           0
           0           0           0           0           0           0
           0           0           0           0           0           0
           0           0           0           0