 Entering Gaussian System, Link 0=/opt/app/gaussian09/e01/g09/g09.exec
 Input=1_hydroxy_anthraquinone_td.gjf
 Output=1_hydroxy_anthraquinone_td.log
 Initial command:
 /opt/app/gaussian09/e01/g09/l1.exe "./Gau-27610.inp" -scrdir="./"
 Entering Link 1 = /opt/app/gaussian09/e01/g09/l1.exe PID=     27615.
  
 Copyright (c) 1988,1990,1992,1993,1995,1998,2003,2009,2015,
            Gaussian, Inc.  All Rights Reserved.
  
 This is part of the Gaussian(R) 09 program.  It is based on
 the Gaussian(R) 03 system (copyright 2003, Gaussian, Inc.),
 the Gaussian(R) 98 system (copyright 1998, Gaussian, Inc.),
 the Gaussian(R) 94 system (copyright 1995, Gaussian, Inc.),
 the Gaussian 92(TM) system (copyright 1992, Gaussian, Inc.),
 the Gaussian 90(TM) system (copyright 1990, Gaussian, Inc.),
 the Gaussian 88(TM) system (copyright 1988, Gaussian, Inc.),
 the Gaussian 86(TM) system (copyright 1986, Carnegie Mellon
 University), and the Gaussian 82(TM) system (copyright 1983,
 Carnegie Mellon University). Gaussian is a federally registered
 trademark of Gaussian, Inc.
  
 This software contains proprietary and confidential information,
 including trade secrets, belonging to Gaussian, Inc.
  
 This software is provided under written license and may be
 used, copied, transmitted, or stored only in accord with that
 written license.
  
 The following legend is applicable only to US Government
 contracts under FAR:
  
                    RESTRICTED RIGHTS LEGEND
  
 Use, reproduction and disclosure by the US Government is
 subject to restrictions as set forth in subparagraphs (a)
 and (c) of the Commercial Computer Software - Restricted
 Rights clause in FAR 52.227-19.
  
 Gaussian, Inc.
 340 Quinnipiac St., Bldg. 40, Wallingford CT 06492
  
  
 ---------------------------------------------------------------
 Warning -- This program may not be used in any manner that
 competes with the business of Gaussian, Inc. or will provide
 assistance to any competitor of Gaussian, Inc.  The licensee
 of this program is prohibited from giving any competitor of
 Gaussian, Inc. access to this program.  By using this program,
 the user acknowledges that Gaussian, Inc. is engaged in the
 business of creating and licensing software in the field of
 computational chemistry and represents and warrants to the
 licensee that it is not a competitor of Gaussian, Inc. and that
 it will not use this program in any manner prohibited above.
 ---------------------------------------------------------------
  

 Cite this work as:
 Gaussian 09, Revision E.01,
 M. J. Frisch, G. W. Trucks, H. B. Schlegel, G. E. Scuseria, 
 M. A. Robb, J. R. Cheeseman, G. Scalmani, V. Barone, B. Mennucci, 
 G. A. Petersson, H. Nakatsuji, M. Caricato, X. Li, H. P. Hratchian, 
 A. F. Izmaylov, J. Bloino, G. Zheng, J. L. Sonnenberg, M. Hada, 
 M. Ehara, K. Toyota, R. Fukuda, J. Hasegawa, M. Ishida, T. Nakajima, 
 Y. Honda, O. Kitao, H. Nakai, T. Vreven, J. A. Montgomery, Jr., 
 J. E. Peralta, F. Ogliaro, M. Bearpark, J. J. Heyd, E. Brothers, 
 K. N. Kudin, V. N. Staroverov, T. Keith, R. Kobayashi, J. Normand, 
 K. Raghavachari, A. Rendell, J. C. Burant, S. S. Iyengar, J. Tomasi, 
 M. Cossi, N. Rega, J. M. Millam, M. Klene, J. E. Knox, J. B. Cross, 
 V. Bakken, C. Adamo, J. Jaramillo, R. Gomperts, R. E. Stratmann, 
 O. Yazyev, A. J. Austin, R. Cammi, C. Pomelli, J. W. Ochterski, 
 R. L. Martin, K. Morokuma, V. G. Zakrzewski, G. A. Voth, 
 P. Salvador, J. J. Dannenberg, S. Dapprich, A. D. Daniels, 
 O. Farkas, J. B. Foresman, J. V. Ortiz, J. Cioslowski, 
 and D. J. Fox, Gaussian, Inc., Wallingford CT, 2013.
 
 ******************************************
 Gaussian 09:  ES64L-G09RevE.01 30-Nov-2015
                31-May-2021 
 ******************************************
 %chk=1_hydroxy_anthraquinone_td.chk
 -------------------------------------------------------------
 #p td(NStates=10) b3lyp/6-31+g(d) nosymm density=SCF pop=full
 -------------------------------------------------------------
 1/38=1/1;
 2/12=2,15=1,17=6,18=5,40=1/2;
 3/5=1,6=6,7=11,11=9,16=1,25=1,30=1,74=-5/1,2,8,3;
 4//1;
 5/5=2,38=5/2;
 8/6=1,10=2,108=10/1;
 9/41=10,42=1,70=2/14;
 6/7=3/1;
 99/5=1,9=1/99;
 Leave Link    1 at Mon May 31 14:38:03 2021, MaxMem=           0 cpu:         0.1
 (Enter /opt/app/gaussian09/e01/g09/l101.exe)
 --------------------------
 1_hydroxy_anthraquinone TD
 --------------------------
 Symbolic Z-matrix:
 Charge =  0 Multiplicity = 1
 C                     3.96925   0.34751   0.0008 
 C                     2.87372   1.2049    0.00028 
 C                     1.57424   0.68197  -0.00021 
 C                     1.37521  -0.70909  -0.00019 
 C                     2.48352  -1.56424   0.00035 
 C                     3.77275  -1.03914   0.00085 
 C                     0.4165    1.61142  -0.00079 
 C                     0.00434  -1.31569  -0.00103 
 C                    -1.16001  -0.38524  -0.00037 
 C                    -0.95834   1.01704  -0.00024 
 C                    -2.03238   1.90751   0.00029 
 H                    -1.82162   2.9706    0.0002 
 C                    -3.33557   1.41692   0.00083 
 C                    -3.56267   0.04581   0.00081 
 C                    -2.49352  -0.86348   0.00019 
 H                     4.97679   0.75413   0.00117 
 H                     2.99534   2.28304   0.00019 
 H                     2.30615  -2.63439   0.00032 
 H                     4.62884  -1.70834   0.0013 
 H                    -4.1794    2.10105   0.00131 
 H                    -4.58095  -0.33985   0.00126 
 O                    -0.1199   -2.53406  -0.00104 
 O                     0.57555   2.82798  -0.00105 
 O                    -2.73017  -2.19709   0.0001 
 H                    -3.69116  -2.33803   0.00061 
 
 NAtoms=     25 NQM=       25 NQMF=       0 NMMI=      0 NMMIF=      0
                NMic=       0 NMicF=      0.
                    Isotopes and Nuclear Properties:
 (Nuclear quadrupole moments (NQMom) in fm**2, nuclear magnetic moments (NMagM)
  in nuclear magnetons)

  Atom         1           2           3           4           5           6           7           8           9          10
 IAtWgt=          12          12          12          12          12          12          12          12          12          12
 AtmWgt=  12.0000000  12.0000000  12.0000000  12.0000000  12.0000000  12.0000000  12.0000000  12.0000000  12.0000000  12.0000000
 NucSpn=           0           0           0           0           0           0           0           0           0           0
 AtZEff=   0.0000000   0.0000000   0.0000000   0.0000000   0.0000000   0.0000000   0.0000000   0.0000000   0.0000000   0.0000000
 NQMom=    0.0000000   0.0000000   0.0000000   0.0000000   0.0000000   0.0000000   0.0000000   0.0000000   0.0000000   0.0000000
 NMagM=    0.0000000   0.0000000   0.0000000   0.0000000   0.0000000   0.0000000   0.0000000   0.0000000   0.0000000   0.0000000
 AtZNuc=   6.0000000   6.0000000   6.0000000   6.0000000   6.0000000   6.0000000   6.0000000   6.0000000   6.0000000   6.0000000

  Atom        11          12          13          14          15          16          17          18          19          20
 IAtWgt=          12           1          12          12          12           1           1           1           1           1
 AtmWgt=  12.0000000   1.0078250  12.0000000  12.0000000  12.0000000   1.0078250   1.0078250   1.0078250   1.0078250   1.0078250
 NucSpn=           0           1           0           0           0           1           1           1           1           1
 AtZEff=   0.0000000   0.0000000   0.0000000   0.0000000   0.0000000   0.0000000   0.0000000   0.0000000   0.0000000   0.0000000
 NQMom=    0.0000000   0.0000000   0.0000000   0.0000000   0.0000000   0.0000000   0.0000000   0.0000000   0.0000000   0.0000000
 NMagM=    0.0000000   2.7928460   0.0000000   0.0000000   0.0000000   2.7928460   2.7928460   2.7928460   2.7928460   2.7928460
 AtZNuc=   6.0000000   1.0000000   6.0000000   6.0000000   6.0000000   1.0000000   1.0000000   1.0000000   1.0000000   1.0000000

  Atom        21          22          23          24          25
 IAtWgt=           1          16          16          16           1
 AtmWgt=   1.0078250  15.9949146  15.9949146  15.9949146   1.0078250
 NucSpn=           1           0           0           0           1
 AtZEff=   0.0000000   0.0000000   0.0000000   0.0000000   0.0000000
 NQMom=    0.0000000   0.0000000   0.0000000   0.0000000   0.0000000
 NMagM=    2.7928460   0.0000000   0.0000000   0.0000000   2.7928460
 AtZNuc=   1.0000000   8.0000000   8.0000000   8.0000000   1.0000000
 Leave Link  101 at Mon May 31 14:38:04 2021, MaxMem=    33554432 cpu:         0.1
 (Enter /opt/app/gaussian09/e01/g09/l202.exe)
                          Input orientation:                          
 ---------------------------------------------------------------------
 Center     Atomic      Atomic             Coordinates (Angstroms)
 Number     Number       Type             X           Y           Z
 ---------------------------------------------------------------------
      1          6           0        3.969250    0.347508    0.000805
      2          6           0        2.873718    1.204904    0.000284
      3          6           0        1.574237    0.681970   -0.000209
      4          6           0        1.375213   -0.709094   -0.000185
      5          6           0        2.483517   -1.564244    0.000355
      6          6           0        3.772751   -1.039140    0.000851
      7          6           0        0.416501    1.611419   -0.000786
      8          6           0        0.004341   -1.315690   -0.001034
      9          6           0       -1.160009   -0.385238   -0.000374
     10          6           0       -0.958336    1.017037   -0.000243
     11          6           0       -2.032379    1.907511    0.000293
     12          1           0       -1.821623    2.970602    0.000205
     13          6           0       -3.335568    1.416922    0.000826
     14          6           0       -3.562675    0.045809    0.000814
     15          6           0       -2.493520   -0.863475    0.000191
     16          1           0        4.976789    0.754129    0.001172
     17          1           0        2.995336    2.283039    0.000192
     18          1           0        2.306152   -2.634391    0.000317
     19          1           0        4.628843   -1.708344    0.001299
     20          1           0       -4.179404    2.101051    0.001315
     21          1           0       -4.580955   -0.339847    0.001264
     22          8           0       -0.119900   -2.534058   -0.001040
     23          8           0        0.575547    2.827977   -0.001048
     24          8           0       -2.730174   -2.197092    0.000099
     25          1           0       -3.691162   -2.338034    0.000612
 ---------------------------------------------------------------------
                    Distance matrix (angstroms):
                    1          2          3          4          5
     1  C    0.000000
     2  C    1.391157   0.000000
     3  C    2.418255   1.400754   0.000000
     4  C    2.800971   2.430824   1.405230   0.000000
     5  C    2.421198   2.796504   2.423276   1.399864   0.000000
     6  C    1.400502   2.417436   2.792076   2.420149   1.392070
     7  C    3.770875   2.490616   1.484664   2.510759   3.789115
     8  C    4.299621   3.819256   2.540712   1.499083   2.491605
     9  C    5.181334   4.335840   2.935138   2.555824   3.829535
    10  C    4.972864   3.836656   2.554642   2.902582   4.302251
    11  C    6.201062   4.956152   3.809151   4.296314   5.696174
    12  H    6.357266   5.016364   4.095082   4.874415   6.252924
    13  C    7.382684   6.212904   4.964508   5.168308   6.538280
    14  C    7.537965   6.539927   5.176153   4.995260   6.256893
    15  C    6.575247   5.751993   4.351441   3.871812   5.026129
    16  H    1.086496   2.150839   3.403318   3.887464   3.404594
    17  H    2.166746   1.084973   2.140781   3.402596   3.881178
    18  H    3.414325   3.881020   3.396167   2.138554   1.084745
    19  H    2.159072   3.401100   3.878688   3.403617   2.150161
    20  H    8.335195   7.109824   5.926059   6.225005   7.604532
    21  H    8.577789   7.613041   6.239431   5.967603   7.169792
    22  O    5.002457   4.789737   3.634960   2.359206   2.778186
    23  O    4.203564   2.813531   2.367008   3.626340   4.788732
    24  O    7.166399   6.555698   5.178508   4.366731   5.251959
    25  H    8.117515   7.459896   6.069995   5.321804   6.222975
                    6          7          8          9         10
     6  C    0.000000
     7  C    4.276667   0.000000
     8  C    3.778544   2.955984   0.000000
     9  C    4.975914   2.544018   1.490454   0.000000
    10  C    5.158590   1.497821   2.523562   1.416704   0.000000
    11  C    6.510169   2.466716   3.812776   2.453106   1.395175
    12  H    6.882954   2.618507   4.659018   3.420438   2.135809
    13  C    7.520668   3.757107   4.315341   2.825038   2.410631
    14  C    7.415227   4.276094   3.818021   2.441025   2.779544
    15  C    6.268733   3.820121   2.538466   1.416672   2.427574
    16  H    2.159982   4.640170   5.386037   6.241671   5.940945
    17  H    3.411927   2.664857   4.679412   4.938279   4.151419
    18  H    2.166965   4.647331   2.652792   4.131944   4.897940
    19  H    1.086613   5.363269   4.641142   5.938133   6.216452
    20  H    8.549712   4.621913   5.401652   3.911314   3.398583
    21  H    8.382924   5.364887   4.687986   3.421247   3.868398
    22  O    4.169834   4.180036   1.224686   2.387311   3.648733
    23  O    5.017640   1.226910   4.182852   3.651973   2.373246
    24  O    6.605217   4.940275   2.873055   2.397547   3.670155
    25  H    7.576089   5.698339   3.834310   3.196896   4.327221
                   11         12         13         14         15
    11  C    0.000000
    12  H    1.083781   0.000000
    13  C    1.392472   2.169321   0.000000
    14  C    2.409925   3.403774   1.389794   0.000000
    15  C    2.809095   3.892505   2.430896   1.403528   0.000000
    16  H    7.103431   7.150605   8.338739   8.568790   7.643439
    17  H    5.041720   4.865782   6.389875   6.929120   6.326775
    18  H    6.281061   6.960925   6.945656   6.451868   5.115955
    19  H    7.579333   7.968754   8.555649   8.377232   7.172298
    20  H    2.155730   2.513017   1.086320   2.145781   3.410370
    21  H    3.397920   4.309639   2.153422   1.088864   2.152109
    22  O    4.835816   5.761696   5.094189   4.302141   2.902571
    23  O    2.765599   2.401409   4.157872   4.986516   4.800624
    24  O    4.163494   5.246954   3.664369   2.392418   1.354452
    25  H    4.558093   5.628214   3.771755   2.387302   1.899650
                   16         17         18         19         20
    16  H    0.000000
    17  H    2.502743   0.000000
    18  H    4.314437   4.965490   0.000000
    19  H    2.486934   4.312712   2.500491   0.000000
    20  H    9.254732   7.177047   8.030370   9.596703   0.000000
    21  H    9.620148   8.017463   7.259282   9.310916   2.473707
    22  O    6.065345   5.736646   2.428126   4.819997   6.161478
    23  O    4.865366   2.480391   5.729961   6.083373   4.810196
    24  O    8.252695   7.270009   5.055276   7.375229   4.535891
    25  H    9.202980   8.127949   6.004632   8.343800   4.465854
                   21         22         23         24         25
    21  H    0.000000
    22  O    4.971476   0.000000
    23  O    6.051828   5.406946   0.000000
    24  O    2.621974   2.631934   6.014907   0.000000
    25  H    2.187345   3.576639   6.700184   0.971269   0.000000
 Symmetry turned off by external request.
 Stoichiometry    C14H8O3
 Framework group  C1[X(C14H8O3)]
 Deg. of freedom    69
 Full point group                 C1      NOp   1
 Rotational constants (GHZ):      0.9054563      0.3991067      0.2770075
 Leave Link  202 at Mon May 31 14:38:05 2021, MaxMem=    33554432 cpu:         0.0
 (Enter /opt/app/gaussian09/e01/g09/l301.exe)
 Standard basis: 6-31+G(d) (6D, 7F)
 Ernie: Thresh=  0.10000D-02 Tol=  0.10000D-05 Strict=F.
   339 basis functions,   576 primitive gaussians,   339 cartesian basis functions
    58 alpha electrons       58 beta electrons
       nuclear repulsion energy      1100.7859187762 Hartrees.
 IExCor=  402 DFT=T Ex+Corr=B3LYP ExCW=0 ScaHFX=  0.200000
 ScaDFX=  0.800000  0.720000  1.000000  0.810000 ScalE2=  1.000000  1.000000
 IRadAn=      0 IRanWt=     -1 IRanGd=            0 ICorTp=0 IEmpDi=  4
 NAtoms=   25 NActive=   25 NUniq=   25 SFac= 1.00D+00 NAtFMM=   60 NAOKFM=F Big=F
 Integral buffers will be    131072 words long.
 Regular integral format.
 Two-electron integral symmetry is turned off.
 Leave Link  301 at Mon May 31 14:38:07 2021, MaxMem=    33554432 cpu:         0.1
 (Enter /opt/app/gaussian09/e01/g09/l302.exe)
 NPDir=0 NMtPBC=     1 NCelOv=     1 NCel=       1 NClECP=     1 NCelD=      1
         NCelK=      1 NCelE2=     1 NClLst=     1 CellRange=     0.0.
 One-electron integrals computed using PRISM.
 NBasis=   339 RedAO= T EigKep=  1.19D-06  NBF=   339
 NBsUse=   334 1.00D-06 EigRej=  8.62D-07 NBFU=   334
 Precomputing XC quadrature grid using
 IXCGrd= 4 IRadAn=           0 IRanWt=          -1 IRanGd=           0 AccXCQ= 0.00D+00.
 Generated NRdTot=       0 NPtTot=           0 NUsed=           0 NTot=          32
 NSgBfM=   337   337   337   337   337 MxSgAt=    25 MxSgA2=    25.
 Leave Link  302 at Mon May 31 14:38:09 2021, MaxMem=    33554432 cpu:         0.7
 (Enter /opt/app/gaussian09/e01/g09/l308.exe)
 Leave Link  308 at Mon May 31 14:38:11 2021, MaxMem=    33554432 cpu:         0.1
 (Enter /opt/app/gaussian09/e01/g09/l303.exe)
 DipDrv:  MaxL=1.
 Leave Link  303 at Mon May 31 14:38:12 2021, MaxMem=    33554432 cpu:         0.1
 (Enter /opt/app/gaussian09/e01/g09/l401.exe)
 ExpMin= 4.38D-02 ExpMax= 5.48D+03 ExpMxC= 8.25D+02 IAcc=2 IRadAn=         4 AccDes= 0.00D+00
 Harris functional with IExCor=  402 and IRadAn=       4 diagonalized for initial guess.
 HarFok:  IExCor=  402 AccDes= 0.00D+00 IRadAn=         4 IDoV= 1 UseB2=F ITyADJ=14
 ICtDFT=  3500011 ScaDFX=  1.000000  1.000000  1.000000  1.000000
 FoFCou: FMM=F IPFlag=           0 FMFlag=      100000 FMFlg1=           0
         NFxFlg=           0 DoJE=T BraDBF=F KetDBF=T FulRan=T
         wScrn=  0.000000 ICntrl=     500 IOpCl=  0 I1Cent=   200000004 NGrid=           0
         NMat0=    1 NMatS0=      1 NMatT0=    0 NMatD0=    1 NMtDS0=    0 NMtDT0=    0
 Symmetry not used in FoFCou.
 Harris En= -764.004167735910    
 JPrj=0 DoOrth=F DoCkMO=F.
 Leave Link  401 at Mon May 31 14:38:23 2021, MaxMem=    33554432 cpu:         9.6
 (Enter /opt/app/gaussian09/e01/g09/l502.exe)
 Closed shell SCF:
 Using DIIS extrapolation, IDIIS=  1040.
 Two-electron integral symmetry not used.
 IVT=      367431 IEndB=      367431 NGot=    33554432 MDV=    33318902
 LenX=    33318902 LenY=    33203540
 Requested convergence on RMS density matrix=1.00D-08 within 128 cycles.
 Requested convergence on MAX density matrix=1.00D-06.
 Requested convergence on             energy=1.00D-06.
 No special actions if energy rises.
 Fock matrices will be formed incrementally for  20 cycles.

 Cycle   1  Pass 1  IDiag  1:
 FoFJK:  IHMeth= 1 ICntrl=       0 DoSepK=F KAlg= 0 I1Cent=   0 FoldK=F
 IRaf= 870000000 NMat=   1 IRICut=       1 DoRegI=T DoRafI=F ISym2E= 0.
 FoFCou: FMM=F IPFlag=           0 FMFlag=      100000 FMFlg1=           0
         NFxFlg=           0 DoJE=F BraDBF=F KetDBF=F FulRan=T
         wScrn=  0.000000 ICntrl=       0 IOpCl=  0 I1Cent=           0 NGrid=           0
         NMat0=    1 NMatS0=      1 NMatT0=    0 NMatD0=    1 NMtDS0=    0 NMtDT0=    0
 Symmetry not used in FoFCou.
 E= -763.679594046438    
 DIIS: error= 3.32D-02 at cycle   1 NSaved=   1.
 NSaved= 1 IEnMin= 1 EnMin= -763.679594046438     IErMin= 1 ErrMin= 3.32D-02
 ErrMax= 3.32D-02  0.00D+00 EMaxC= 1.00D-01 BMatC= 3.69D-01 BMatP= 3.69D-01
 IDIUse=3 WtCom= 6.68D-01 WtEn= 3.32D-01
 Coeff-Com:  0.100D+01
 Coeff-En:   0.100D+01
 Coeff:      0.100D+01
 Gap=     0.131 Goal=   None    Shift=    0.000
 GapD=    0.131 DampG=1.000 DampE=0.500 DampFc=0.5000 IDamp=-1.
 Damping current iteration by 5.00D-01
 RMSDP=5.71D-02 MaxDP=4.48D+00              OVMax= 2.88D-01

 Cycle   2  Pass 1  IDiag  1:
 RMSU=  2.80D-02    CP:  1.04D+00
 E= -763.771792672469     Delta-E=       -0.092198626030 Rises=F Damp=T
 DIIS: error= 1.53D-02 at cycle   2 NSaved=   2.
 NSaved= 2 IEnMin= 2 EnMin= -763.771792672469     IErMin= 2 ErrMin= 1.53D-02
 ErrMax= 1.53D-02  0.00D+00 EMaxC= 1.00D-01 BMatC= 7.13D-02 BMatP= 3.69D-01
 IDIUse=3 WtCom= 8.47D-01 WtEn= 1.53D-01
 Coeff-Com:  0.228D+00 0.772D+00
 Coeff-En:   0.336D+00 0.664D+00
 Coeff:      0.245D+00 0.755D+00
 Gap=     0.158 Goal=   None    Shift=    0.000
 RMSDP=4.00D-02 MaxDP=3.17D+00 DE=-9.22D-02 OVMax= 2.65D-01

 Cycle   3  Pass 1  IDiag  1:
 RMSU=  1.10D-02    CP:  7.66D-01  8.59D-01
 E= -763.953098955456     Delta-E=       -0.181306282987 Rises=F Damp=F
 DIIS: error= 1.82D-02 at cycle   3 NSaved=   3.
 NSaved= 3 IEnMin= 3 EnMin= -763.953098955456     IErMin= 2 ErrMin= 1.53D-02
 ErrMax= 1.82D-02  0.00D+00 EMaxC= 1.00D-01 BMatC= 6.75D-02 BMatP= 7.13D-02
 IDIUse=3 WtCom= 8.18D-01 WtEn= 1.82D-01
 Coeff-Com:  0.483D-01 0.485D+00 0.466D+00
 Coeff-En:   0.000D+00 0.000D+00 0.100D+01
 Coeff:      0.395D-01 0.397D+00 0.564D+00
 Gap=     0.142 Goal=   None    Shift=    0.000
 RMSDP=1.48D-02 MaxDP=9.77D-01 DE=-1.81D-01 OVMax= 1.03D-01

 Cycle   4  Pass 1  IDiag  1:
 RMSU=  8.22D-03    CP:  7.19D-01  5.03D-01  7.24D-01
 E= -763.990833683803     Delta-E=       -0.037734728347 Rises=F Damp=F
 DIIS: error= 1.22D-02 at cycle   4 NSaved=   4.
 NSaved= 4 IEnMin= 4 EnMin= -763.990833683803     IErMin= 4 ErrMin= 1.22D-02
 ErrMax= 1.22D-02  0.00D+00 EMaxC= 1.00D-01 BMatC= 2.78D-02 BMatP= 6.75D-02
 IDIUse=3 WtCom= 8.78D-01 WtEn= 1.22D-01
 Coeff-Com:  0.178D-01 0.711D-01 0.384D+00 0.527D+00
 Coeff-En:   0.000D+00 0.000D+00 0.331D+00 0.669D+00
 Coeff:      0.157D-01 0.624D-01 0.377D+00 0.545D+00
 Gap=     0.150 Goal=   None    Shift=    0.000
 RMSDP=3.26D-03 MaxDP=1.99D-01 DE=-3.77D-02 OVMax= 4.13D-02

 Cycle   5  Pass 1  IDiag  1:
 RMSU=  1.40D-03    CP:  7.26D-01  5.69D-01  7.97D-01  7.63D-01
 E= -764.014933914428     Delta-E=       -0.024100230625 Rises=F Damp=F
 DIIS: error= 1.16D-03 at cycle   5 NSaved=   5.
 NSaved= 5 IEnMin= 5 EnMin= -764.014933914428     IErMin= 5 ErrMin= 1.16D-03
 ErrMax= 1.16D-03  0.00D+00 EMaxC= 1.00D-01 BMatC= 6.45D-04 BMatP= 2.78D-02
 IDIUse=3 WtCom= 9.88D-01 WtEn= 1.16D-02
 Coeff-Com:  0.555D-02 0.452D-02 0.169D+00 0.295D+00 0.525D+00
 Coeff-En:   0.000D+00 0.000D+00 0.000D+00 0.000D+00 0.100D+01
 Coeff:      0.548D-02 0.447D-02 0.167D+00 0.292D+00 0.531D+00
 Gap=     0.140 Goal=   None    Shift=    0.000
 RMSDP=1.07D-03 MaxDP=6.77D-02 DE=-2.41D-02 OVMax= 1.04D-02

 Cycle   6  Pass 1  IDiag  1:
 RMSU=  5.70D-04    CP:  7.27D-01  5.78D-01  8.07D-01  6.85D-01  6.12D-01
 E= -764.015485493260     Delta-E=       -0.000551578832 Rises=F Damp=F
 DIIS: error= 6.22D-04 at cycle   6 NSaved=   6.
 NSaved= 6 IEnMin= 6 EnMin= -764.015485493260     IErMin= 6 ErrMin= 6.22D-04
 ErrMax= 6.22D-04  0.00D+00 EMaxC= 1.00D-01 BMatC= 7.98D-05 BMatP= 6.45D-04
 IDIUse=3 WtCom= 9.94D-01 WtEn= 6.22D-03
 Coeff-Com:  0.140D-02-0.432D-02 0.551D-01 0.110D+00 0.314D+00 0.524D+00
 Coeff-En:   0.000D+00 0.000D+00 0.000D+00 0.000D+00 0.104D+00 0.896D+00
 Coeff:      0.139D-02-0.430D-02 0.547D-01 0.109D+00 0.313D+00 0.527D+00
 Gap=     0.141 Goal=   None    Shift=    0.000
 RMSDP=2.93D-04 MaxDP=2.08D-02 DE=-5.52D-04 OVMax= 4.82D-03

 Cycle   7  Pass 1  IDiag  1:
 RMSU=  1.33D-04    CP:  7.27D-01  5.80D-01  8.09D-01  6.97D-01  6.36D-01
                    CP:  5.93D-01
 E= -764.015565324054     Delta-E=       -0.000079830794 Rises=F Damp=F
 DIIS: error= 2.09D-04 at cycle   7 NSaved=   7.
 NSaved= 7 IEnMin= 7 EnMin= -764.015565324054     IErMin= 7 ErrMin= 2.09D-04
 ErrMax= 2.09D-04  0.00D+00 EMaxC= 1.00D-01 BMatC= 8.64D-06 BMatP= 7.98D-05
 IDIUse=3 WtCom= 9.98D-01 WtEn= 2.09D-03
 Coeff-Com:  0.324D-03-0.266D-02 0.155D-01 0.343D-01 0.132D+00 0.317D+00
 Coeff-Com:  0.503D+00
 Coeff-En:   0.000D+00 0.000D+00 0.000D+00 0.000D+00 0.000D+00 0.704D-01
 Coeff-En:   0.930D+00
 Coeff:      0.323D-03-0.265D-02 0.155D-01 0.342D-01 0.132D+00 0.317D+00
 Coeff:      0.504D+00
 Gap=     0.141 Goal=   None    Shift=    0.000
 RMSDP=9.60D-05 MaxDP=6.50D-03 DE=-7.98D-05 OVMax= 1.50D-03

 Cycle   8  Pass 1  IDiag  1:
 RMSU=  5.29D-05    CP:  7.27D-01  5.79D-01  8.08D-01  7.01D-01  6.41D-01
                    CP:  6.56D-01  7.16D-01
 E= -764.015574542533     Delta-E=       -0.000009218479 Rises=F Damp=F
 DIIS: error= 5.52D-05 at cycle   8 NSaved=   8.
 NSaved= 8 IEnMin= 8 EnMin= -764.015574542533     IErMin= 8 ErrMin= 5.52D-05
 ErrMax= 5.52D-05  0.00D+00 EMaxC= 1.00D-01 BMatC= 5.42D-07 BMatP= 8.64D-06
 IDIUse=1 WtCom= 1.00D+00 WtEn= 0.00D+00
 Coeff-Com:  0.134D-03-0.124D-02 0.499D-02 0.115D-01 0.529D-01 0.140D+00
 Coeff-Com:  0.272D+00 0.519D+00
 Coeff:      0.134D-03-0.124D-02 0.499D-02 0.115D-01 0.529D-01 0.140D+00
 Coeff:      0.272D+00 0.519D+00
 Gap=     0.141 Goal=   None    Shift=    0.000
 RMSDP=2.75D-05 MaxDP=1.33D-03 DE=-9.22D-06 OVMax= 3.57D-04

 Cycle   9  Pass 1  IDiag  1:
 RMSU=  1.29D-05    CP:  7.26D-01  5.78D-01  8.08D-01  7.00D-01  6.41D-01
                    CP:  6.56D-01  7.37D-01  7.78D-01
 E= -764.015574925240     Delta-E=       -0.000000382707 Rises=F Damp=F
 DIIS: error= 2.53D-05 at cycle   9 NSaved=   9.
 NSaved= 9 IEnMin= 9 EnMin= -764.015574925240     IErMin= 9 ErrMin= 2.53D-05
 ErrMax= 2.53D-05  0.00D+00 EMaxC= 1.00D-01 BMatC= 1.54D-07 BMatP= 5.42D-07
 IDIUse=1 WtCom= 1.00D+00 WtEn= 0.00D+00
 Coeff-Com:  0.406D-04-0.299D-03 0.217D-03 0.618D-03 0.869D-02 0.294D-01
 Coeff-Com:  0.788D-01 0.360D+00 0.523D+00
 Coeff:      0.406D-04-0.299D-03 0.217D-03 0.618D-03 0.869D-02 0.294D-01
 Coeff:      0.788D-01 0.360D+00 0.523D+00
 Gap=     0.141 Goal=   None    Shift=    0.000
 RMSDP=7.08D-06 MaxDP=3.58D-04 DE=-3.83D-07 OVMax= 1.28D-04

 Cycle  10  Pass 1  IDiag  1:
 RMSU=  3.78D-06    CP:  7.26D-01  5.78D-01  8.08D-01  7.00D-01  6.42D-01
                    CP:  6.57D-01  7.27D-01  8.02D-01  6.87D-01
 E= -764.015575048433     Delta-E=       -0.000000123193 Rises=F Damp=F
 DIIS: error= 5.48D-06 at cycle  10 NSaved=  10.
 NSaved=10 IEnMin=10 EnMin= -764.015575048433     IErMin=10 ErrMin= 5.48D-06
 ErrMax= 5.48D-06  0.00D+00 EMaxC= 1.00D-01 BMatC= 1.18D-08 BMatP= 1.54D-07
 IDIUse=1 WtCom= 1.00D+00 WtEn= 0.00D+00
 Coeff-Com:  0.186D-04-0.109D-03-0.158D-03-0.347D-03 0.230D-02 0.102D-01
 Coeff-Com:  0.330D-01 0.196D+00 0.328D+00 0.431D+00
 Coeff:      0.186D-04-0.109D-03-0.158D-03-0.347D-03 0.230D-02 0.102D-01
 Coeff:      0.330D-01 0.196D+00 0.328D+00 0.431D+00
 Gap=     0.141 Goal=   None    Shift=    0.000
 RMSDP=2.06D-06 MaxDP=8.93D-05 DE=-1.23D-07 OVMax= 2.08D-05

 Cycle  11  Pass 1  IDiag  1:
 RMSU=  1.17D-06    CP:  7.26D-01  5.78D-01  8.08D-01  7.00D-01  6.43D-01
                    CP:  6.58D-01  7.30D-01  8.22D-01  7.10D-01  7.57D-01
 E= -764.015575057342     Delta-E=       -0.000000008909 Rises=F Damp=F
 DIIS: error= 1.34D-06 at cycle  11 NSaved=  11.
 NSaved=11 IEnMin=11 EnMin= -764.015575057342     IErMin=11 ErrMin= 1.34D-06
 ErrMax= 1.34D-06  0.00D+00 EMaxC= 1.00D-01 BMatC= 6.71D-10 BMatP= 1.18D-08
 IDIUse=1 WtCom= 1.00D+00 WtEn= 0.00D+00
 Coeff-Com:  0.398D-05-0.106D-04-0.941D-04-0.261D-03-0.169D-03 0.453D-03
 Coeff-Com:  0.320D-02 0.376D-01 0.751D-01 0.214D+00 0.670D+00
 Coeff:      0.398D-05-0.106D-04-0.941D-04-0.261D-03-0.169D-03 0.453D-03
 Coeff:      0.320D-02 0.376D-01 0.751D-01 0.214D+00 0.670D+00
 Gap=     0.141 Goal=   None    Shift=    0.000
 RMSDP=5.86D-07 MaxDP=2.93D-05 DE=-8.91D-09 OVMax= 1.29D-05

 Cycle  12  Pass 1  IDiag  1:
 RMSU=  3.17D-07    CP:  7.26D-01  5.78D-01  8.08D-01  7.00D-01  6.43D-01
                    CP:  6.58D-01  7.29D-01  8.22D-01  7.15D-01  7.19D-01
                    CP:  7.72D-01
 E= -764.015575057904     Delta-E=       -0.000000000562 Rises=F Damp=F
 DIIS: error= 4.45D-07 at cycle  12 NSaved=  12.
 NSaved=12 IEnMin=12 EnMin= -764.015575057904     IErMin=12 ErrMin= 4.45D-07
 ErrMax= 4.45D-07  0.00D+00 EMaxC= 1.00D-01 BMatC= 8.42D-11 BMatP= 6.71D-10
 IDIUse=1 WtCom= 1.00D+00 WtEn= 0.00D+00
 Coeff-Com:  0.998D-06 0.709D-06-0.504D-04-0.143D-03-0.266D-03-0.359D-03
 Coeff-Com: -0.187D-03 0.109D-01 0.248D-01 0.991D-01 0.399D+00 0.467D+00
 Coeff:      0.998D-06 0.709D-06-0.504D-04-0.143D-03-0.266D-03-0.359D-03
 Coeff:     -0.187D-03 0.109D-01 0.248D-01 0.991D-01 0.399D+00 0.467D+00
 Gap=     0.141 Goal=   None    Shift=    0.000
 RMSDP=3.07D-07 MaxDP=1.89D-05 DE=-5.62D-10 OVMax= 3.99D-06

 Cycle  13  Pass 1  IDiag  1:
 RMSU=  1.67D-07    CP:  7.26D-01  5.78D-01  8.08D-01  7.00D-01  6.43D-01
                    CP:  6.58D-01  7.30D-01  8.23D-01  7.18D-01  7.49D-01
                    CP:  7.70D-01  8.83D-01
 E= -764.015575057977     Delta-E=       -0.000000000073 Rises=F Damp=F
 DIIS: error= 1.11D-07 at cycle  13 NSaved=  13.
 NSaved=13 IEnMin=13 EnMin= -764.015575057977     IErMin=13 ErrMin= 1.11D-07
 ErrMax= 1.11D-07  0.00D+00 EMaxC= 1.00D-01 BMatC= 5.28D-12 BMatP= 8.42D-11
 IDIUse=1 WtCom= 1.00D+00 WtEn= 0.00D+00
 Coeff-Com: -0.531D-06 0.234D-05-0.401D-05-0.109D-04-0.923D-04-0.249D-03
 Coeff-Com: -0.834D-03-0.273D-02-0.470D-02-0.633D-03 0.521D-01 0.201D+00
 Coeff-Com:  0.756D+00
 Coeff:     -0.531D-06 0.234D-05-0.401D-05-0.109D-04-0.923D-04-0.249D-03
 Coeff:     -0.834D-03-0.273D-02-0.470D-02-0.633D-03 0.521D-01 0.201D+00
 Coeff:      0.756D+00
 Gap=     0.141 Goal=   None    Shift=    0.000
 RMSDP=1.18D-07 MaxDP=5.88D-06 DE=-7.30D-11 OVMax= 2.01D-06

 Cycle  14  Pass 1  IDiag  1:
 RMSU=  4.60D-08    CP:  7.26D-01  5.78D-01  8.08D-01  7.00D-01  6.43D-01
                    CP:  6.58D-01  7.30D-01  8.23D-01  7.19D-01  7.53D-01
                    CP:  8.01D-01  9.16D-01  9.30D-01
 E= -764.015575057996     Delta-E=       -0.000000000019 Rises=F Damp=F
 DIIS: error= 8.82D-08 at cycle  14 NSaved=  14.
 NSaved=14 IEnMin=14 EnMin= -764.015575057996     IErMin=14 ErrMin= 8.82D-08
 ErrMax= 8.82D-08  0.00D+00 EMaxC= 1.00D-01 BMatC= 1.87D-12 BMatP= 5.28D-12
 IDIUse=1 WtCom= 1.00D+00 WtEn= 0.00D+00
 Coeff-Com: -0.414D-06 0.142D-05 0.142D-05 0.486D-05-0.371D-04-0.127D-03
 Coeff-Com: -0.518D-03-0.262D-02-0.510D-02-0.867D-02 0.252D-02 0.862D-01
 Coeff-Com:  0.486D+00 0.442D+00
 Coeff:     -0.414D-06 0.142D-05 0.142D-05 0.486D-05-0.371D-04-0.127D-03
 Coeff:     -0.518D-03-0.262D-02-0.510D-02-0.867D-02 0.252D-02 0.862D-01
 Coeff:      0.486D+00 0.442D+00
 Gap=     0.141 Goal=   None    Shift=    0.000
 RMSDP=4.87D-08 MaxDP=2.04D-06 DE=-1.91D-11 OVMax= 5.07D-07

 Cycle  15  Pass 1  IDiag  1:
 RMSU=  1.92D-08    CP:  7.26D-01  5.78D-01  8.08D-01  7.00D-01  6.43D-01
                    CP:  6.58D-01  7.30D-01  8.24D-01  7.20D-01  7.52D-01
                    CP:  7.92D-01  9.39D-01  9.82D-01  6.34D-01
 E= -764.015575057994     Delta-E=        0.000000000002 Rises=F Damp=F
 DIIS: error= 1.88D-08 at cycle  15 NSaved=  15.
 NSaved=15 IEnMin=14 EnMin= -764.015575057996     IErMin=15 ErrMin= 1.88D-08
 ErrMax= 1.88D-08  0.00D+00 EMaxC= 1.00D-01 BMatC= 6.96D-14 BMatP= 1.87D-12
 IDIUse=1 WtCom= 1.00D+00 WtEn= 0.00D+00
 Coeff-Com: -0.837D-07 0.206D-06 0.116D-05 0.383D-05-0.154D-05-0.156D-04
 Coeff-Com: -0.879D-04-0.654D-03-0.143D-02-0.393D-02-0.716D-02 0.930D-03
 Coeff-Com:  0.935D-01 0.180D+00 0.739D+00
 Coeff:     -0.837D-07 0.206D-06 0.116D-05 0.383D-05-0.154D-05-0.156D-04
 Coeff:     -0.879D-04-0.654D-03-0.143D-02-0.393D-02-0.716D-02 0.930D-03
 Coeff:      0.935D-01 0.180D+00 0.739D+00
 Gap=     0.141 Goal=   None    Shift=    0.000
 RMSDP=8.12D-09 MaxDP=4.48D-07 DE= 1.82D-12 OVMax= 2.51D-07

 SCF Done:  E(RB3LYP) =  -764.015575058     A.U. after   15 cycles
            NFock= 15  Conv=0.81D-08     -V/T= 2.0093
 KE= 7.569856061957D+02 PE=-3.979522387097D+03 EE= 1.357735287068D+03
 Leave Link  502 at Mon May 31 14:49:53 2021, MaxMem=    33554432 cpu:       687.2
 (Enter /opt/app/gaussian09/e01/g09/l801.exe)
 DoSCS=F DFT=T ScalE2(SS,OS)=  1.000000  1.000000
 ExpMin= 4.38D-02 ExpMax= 5.48D+03 ExpMxC= 8.25D+02 IAcc=3 IRadAn=         5 AccDes= 0.00D+00
 HarFok:  IExCor=  205 AccDes= 0.00D+00 IRadAn=         5 IDoV=-2 UseB2=F ITyADJ=14
 ICtDFT= 12500011 ScaDFX=  1.000000  1.000000  1.000000  1.000000
 Largest valence mixing into a core orbital is  5.68D-05
 Largest core mixing into a valence orbital is  1.18D-05
 Range of M.O.s used for correlation:    18   334
 NBasis=   339 NAE=    58 NBE=    58 NFC=    17 NFV=     0
 NROrb=    317 NOA=    41 NOB=    41 NVA=   276 NVB=   276

 **** Warning!!: The largest alpha MO coefficient is  0.15448332D+03

 Leave Link  801 at Mon May 31 14:49:55 2021, MaxMem=    33554432 cpu:         1.1
 (Enter /opt/app/gaussian09/e01/g09/l914.exe)
 RHF ground state
 MDV=    33554432 DFT=T DoStab=F Mixed=T DoRPA=T DoScal=F NonHer=T
 Would need an additional          4986500000 words for in-memory AO integral storage.
 Making orbital integer symmetry assigments:
    40 initial guesses have been made.
 Convergence on wavefunction:    0.001000000000000
 Davidson Disk Diagonalization:  ConvIn= 1.00D-03 SkipCon=T Conv= 1.00D-03.
 Max sub-space:   200 roots to seek:    40 dimension of matrix:        22632
 Iteration     1 Dimension    40 NMult     0 NNew     40
 CISAX will form    40 AO SS matrices at one time.
 NMat=    40 NSing=    40 JSym2X= 0.
 FoFJK:  IHMeth= 1 ICntrl=       0 DoSepK=F KAlg= 0 I1Cent=   0 FoldK=F
 IRaf=         0 NMat=  80 IRICut=     100 DoRegI=T DoRafI=T ISym2E= 0.
 FoFCou: FMM=F IPFlag=           0 FMFlag=      100000 FMFlg1=           0
         NFxFlg=           0 DoJE=F BraDBF=F KetDBF=F FulRan=T
         wScrn=  0.000000 ICntrl=       0 IOpCl=  0 I1Cent=           0 NGrid=           0
         NMat0=   80 NMatS0=     40 NMatT0=    0 NMatD0=   80 NMtDS0=    0 NMtDT0=    0
 Symmetry not used in FoFCou.
 New state      1 was old state      2
 New state      2 was old state      4
 New state      3 was old state      1
 New state      4 was old state      5
 New state      5 was old state      3
 New state      6 was old state      8
 New state      8 was old state     10
 New state      9 was old state      6
 New state     10 was old state     14
 Excitation Energies [eV] at current iteration:
 Root      1 :     2.903603326173970
 Root      2 :     3.265425196940285
 Root      3 :     3.516043114653659
 Root      4 :     3.951385204944883
 Root      5 :     3.984994246481274
 Root      6 :     4.373627623838569
 Root      7 :     4.775722986843407
 Root      8 :     4.835414097956145
 Root      9 :     4.930948660385647
 Root     10 :     5.223086282433307
 Root     11 :     5.237568415183159
 Root     12 :     5.403769311834158
 Root     13 :     5.444440215466723
 Root     14 :     5.598420511525778
 Root     15 :     5.649525453282482
 Root     16 :     5.708997686892959
 Root     17 :     5.860859035945088
 Root     18 :     5.978715345367783
 Root     19 :     6.055640284934175
 Root     20 :     6.079010765784764
 Root     21 :     6.151357557548871
 Root     22 :     6.260710052711737
 Root     23 :     6.291350484308750
 Root     24 :     6.343329723790958
 Root     25 :     6.488309020032958
 Root     26 :     6.508565430421010
 Root     27 :     6.558040508876753
 Root     28 :     6.608740586388659
 Root     29 :     6.611714637615898
 Root     30 :     6.612864651723261
 Root     31 :     6.615964092289537
 Root     32 :     6.699581544833745
 Root     33 :     6.804195511703760
 Root     34 :     6.808806570318896
 Root     35 :     6.835907854952553
 Root     36 :     7.094579087044210
 Root     37 :     7.276037086809874
 Root     38 :     7.401835253706499
 Root     39 :     7.854684828690508
 Root     40 :     7.862287102046113
 Iteration     2 Dimension    60 NMult    40 NNew     20
 CISAX will form    20 AO SS matrices at one time.
 NMat=    20 NSing=    20 JSym2X= 0.
 Root      1 not converged, maximum delta is    0.036149946847341
 Root      2 not converged, maximum delta is    0.034297051736858
 Root      3 not converged, maximum delta is    0.052500681672236
 Root      4 not converged, maximum delta is    0.075729701050438
 Root      5 not converged, maximum delta is    0.055343235417729
 Root      6 not converged, maximum delta is    0.038531279008343
 New state      7 was old state      9
 Root      7 not converged, maximum delta is    0.120531949011861
 New state      8 was old state      7
 Root      8 not converged, maximum delta is    0.118781317313570
 New state      9 was old state      8
 Root      9 not converged, maximum delta is    0.037837220807449
 Root     10 not converged, maximum delta is    0.021351117347723
 Excitation Energies [eV] at current iteration:
 Root      1 :     2.832155211725222   Change is   -0.071448114448748
 Root      2 :     3.185248996120287   Change is   -0.080176200819997
 Root      3 :     3.336511754052495   Change is   -0.179531360601164
 Root      4 :     3.761369491175627   Change is   -0.190015713769256
 Root      5 :     3.827488730611956   Change is   -0.157505515869318
 Root      6 :     4.337481441484178   Change is   -0.036146182354391
 Root      7 :     4.572288158295281   Change is   -0.358660502090366
 Root      8 :     4.621331564464955   Change is   -0.154391422378452
 Root      9 :     4.801220164457965   Change is   -0.034193933498180
 Root     10 :     5.188661120858043   Change is   -0.034425161575264
 Iteration     3 Dimension    80 NMult    60 NNew     20
 CISAX will form    20 AO SS matrices at one time.
 NMat=    20 NSing=    20 JSym2X= 0.
 Root      1 not converged, maximum delta is    0.002386749128392
 Root      2 not converged, maximum delta is    0.002122909370321
 Root      3 not converged, maximum delta is    0.014143772613022
 Root      4 not converged, maximum delta is    0.020456923066852
 Root      5 not converged, maximum delta is    0.019982550977211
 Root      6 not converged, maximum delta is    0.002724431811980
 Root      7 not converged, maximum delta is    0.039765308119134
 Root      8 not converged, maximum delta is    0.036648254082423
 Root      9 not converged, maximum delta is    0.002769732661797
 Root     10 not converged, maximum delta is    0.373473162224650
 Excitation Energies [eV] at current iteration:
 Root      1 :     2.830364747226524   Change is   -0.001790464498698
 Root      2 :     3.183746306590898   Change is   -0.001502689529389
 Root      3 :     3.320786885503775   Change is   -0.015724868548720
 Root      4 :     3.755594471910014   Change is   -0.005775019265613
 Root      5 :     3.813096030262736   Change is   -0.014392700349220
 Root      6 :     4.336649073556347   Change is   -0.000832367927831
 Root      7 :     4.534982039187418   Change is   -0.037306119107863
 Root      8 :     4.608936898110436   Change is   -0.012394666354520
 Root      9 :     4.800526400421012   Change is   -0.000693764036953
 Root     10 :     5.182681738543990   Change is   -0.005979382314054
 Iteration     4 Dimension   100 NMult    80 NNew     20
 CISAX will form    20 AO SS matrices at one time.
 NMat=    20 NSing=    20 JSym2X= 0.
 Root      1 has converged.
 Root      2 has converged.
 Root      3 not converged, maximum delta is    0.001539784411360
 Root      4 not converged, maximum delta is    0.003739469470069
 Root      5 not converged, maximum delta is    0.003869462559865
 Root      6 has converged.
 Root      7 not converged, maximum delta is    0.009015025408393
 Root      8 not converged, maximum delta is    0.004703391448383
 Root      9 has converged.
 Root     10 not converged, maximum delta is    0.441642862402601
 Excitation Energies [eV] at current iteration:
 Root      1 :     2.830314769144679   Change is   -0.000049978081845
 Root      2 :     3.183691551247581   Change is   -0.000054755343317
 Root      3 :     3.319506808658169   Change is   -0.001280076845606
 Root      4 :     3.754830469896242   Change is   -0.000764002013772
 Root      5 :     3.811065687141784   Change is   -0.002030343120953
 Root      6 :     4.336618223459673   Change is   -0.000030850096674
 Root      7 :     4.530287029706284   Change is   -0.004695009481134
 Root      8 :     4.607861238369541   Change is   -0.001075659740896
 Root      9 :     4.800496247700132   Change is   -0.000030152720880
 Root     10 :     5.079101085285916   Change is   -0.103580653258074
 Iteration     5 Dimension   112 NMult   100 NNew     12
 CISAX will form    12 AO SS matrices at one time.
 NMat=    12 NSing=    12 JSym2X= 0.
 Root      1 has converged.
 Root      2 has converged.
 Root      3 has converged.
 Root      4 has converged.
 Root      5 not converged, maximum delta is    0.001086378203517
 Root      6 has converged.
 Root      7 not converged, maximum delta is    0.001878664688080
 Root      8 has converged.
 Root      9 has converged.
 Root     10 not converged, maximum delta is    0.021871987670398
 Excitation Energies [eV] at current iteration:
 Root      1 :     2.830314763784969   Change is   -0.000000005359711
 Root      2 :     3.183691539787096   Change is   -0.000000011460486
 Root      3 :     3.319412672296859   Change is   -0.000094136361310
 Root      4 :     3.754781841319701   Change is   -0.000048628576541
 Root      5 :     3.810848109876898   Change is   -0.000217577264885
 Root      6 :     4.336618220618743   Change is   -0.000000002840929
 Root      7 :     4.529719346503881   Change is   -0.000567683202404
 Root      8 :     4.607780778371760   Change is   -0.000080459997781
 Root      9 :     4.800496243627907   Change is   -0.000000004072225
 Root     10 :     5.070229013316695   Change is   -0.008872071969222
 Iteration     6 Dimension   118 NMult   112 NNew      6
 CISAX will form     6 AO SS matrices at one time.
 NMat=     6 NSing=     6 JSym2X= 0.
 Root      1 has converged.
 Root      2 has converged.
 Root      3 has converged.
 Root      4 has converged.
 Root      5 has converged.
 Root      6 has converged.
 Root      7 has converged.
 Root      8 has converged.
 Root      9 has converged.
 Root     10 not converged, maximum delta is    0.007015859938525
 Excitation Energies [eV] at current iteration:
 Root      1 :     2.830314760122029   Change is   -0.000000003662939
 Root      2 :     3.183691538545910   Change is   -0.000000001241185
 Root      3 :     3.319411292484369   Change is   -0.000001379812490
 Root      4 :     3.754781432470322   Change is   -0.000000408849379
 Root      5 :     3.810840203289431   Change is   -0.000007906587467
 Root      6 :     4.336618218841828   Change is   -0.000000001776916
 Root      7 :     4.529690219790591   Change is   -0.000029126713289
 Root      8 :     4.607779929251138   Change is   -0.000000849120622
 Root      9 :     4.800496242502689   Change is   -0.000000001125218
 Root     10 :     5.069545709419525   Change is   -0.000683303897170
 Iteration     7 Dimension   120 NMult   118 NNew      2
 CISAX will form     2 AO SS matrices at one time.
 NMat=     2 NSing=     2 JSym2X= 0.
 Root      1 has converged.
 Root      2 has converged.
 Root      3 has converged.
 Root      4 has converged.
 Root      5 has converged.
 Root      6 has converged.
 Root      7 has converged.
 Root      8 has converged.
 Root      9 has converged.
 Root     10 not converged, maximum delta is    0.003210272378001
 Excitation Energies [eV] at current iteration:
 Root      1 :     2.830314759717050   Change is   -0.000000000404979
 Root      2 :     3.183691538435343   Change is   -0.000000000110567
 Root      3 :     3.319411234993099   Change is   -0.000000057491270
 Root      4 :     3.754781388401992   Change is   -0.000000044068330
 Root      5 :     3.810840186441988   Change is   -0.000000016847443
 Root      6 :     4.336618218658215   Change is   -0.000000000183613
 Root      7 :     4.529690090233657   Change is   -0.000000129556934
 Root      8 :     4.607779867757181   Change is   -0.000000061493957
 Root      9 :     4.800496242193963   Change is   -0.000000000308726
 Root     10 :     5.069464945055205   Change is   -0.000080764364320
 Iteration     8 Dimension   122 NMult   120 NNew      2
 CISAX will form     2 AO SS matrices at one time.
 NMat=     2 NSing=     2 JSym2X= 0.
 Root      1 has converged.
 Root      2 has converged.
 Root      3 has converged.
 Root      4 has converged.
 Root      5 has converged.
 Root      6 has converged.
 Root      7 has converged.
 Root      8 has converged.
 Root      9 has converged.
 Root     10 not converged, maximum delta is    0.001744740552547
 Excitation Energies [eV] at current iteration:
 Root      1 :     2.830314758910925   Change is   -0.000000000806125
 Root      2 :     3.183691538060157   Change is   -0.000000000375186
 Root      3 :     3.319411208400444   Change is   -0.000000026592655
 Root      4 :     3.754781337605237   Change is   -0.000000050796755
 Root      5 :     3.810840180073972   Change is   -0.000000006368016
 Root      6 :     4.336618217954299   Change is   -0.000000000703915
 Root      7 :     4.529689984064360   Change is   -0.000000106169297
 Root      8 :     4.607779798889348   Change is   -0.000000068867832
 Root      9 :     4.800496241877531   Change is   -0.000000000316432
 Root     10 :     5.069453243410983   Change is   -0.000011701644221
 Iteration     9 Dimension   124 NMult   122 NNew      2
 CISAX will form     2 AO SS matrices at one time.
 NMat=     2 NSing=     2 JSym2X= 0.
 Root      1 has converged.
 Root      2 has converged.
 Root      3 has converged.
 Root      4 has converged.
 Root      5 has converged.
 Root      6 has converged.
 Root      7 has converged.
 Root      8 has converged.
 Root      9 has converged.
 Root     10 has converged.
 Excitation Energies [eV] at current iteration:
 Root      1 :     2.830314757722360   Change is   -0.000000001188565
 Root      2 :     3.183691537327370   Change is   -0.000000000732787
 Root      3 :     3.319411160997972   Change is   -0.000000047402472
 Root      4 :     3.754781272386496   Change is   -0.000000065218741
 Root      5 :     3.810840177781406   Change is   -0.000000002292566
 Root      6 :     4.336618216788905   Change is   -0.000000001165395
 Root      7 :     4.529689947196688   Change is   -0.000000036867673
 Root      8 :     4.607779541178287   Change is   -0.000000257711062
 Root      9 :     4.800496241739060   Change is   -0.000000000138471
 Root     10 :     5.069451661262279   Change is   -0.000001582148705
 Convergence achieved on expansion vectors.
 ***********************************************************************
 Excited states from <AA,BB:AA,BB> singles matrix:
 ***********************************************************************
 
 1PDM for each excited state written to RWF  633
 Ground to excited state transition densities written to RWF  633
 Ground to excited state transition electric dipole moments (Au):
       state          X           Y           Z        Dip. S.      Osc.
         1        -0.0000      0.0000      0.0002      0.0000      0.0000
         2        -0.0008      0.0001      0.0029      0.0000      0.0000
         3         1.0948     -0.1052     -0.0004      1.2097      0.0984
         4        -0.1427      0.1782      0.0001      0.0521      0.0048
         5         0.7493     -0.0733      0.0003      0.5668      0.0529
         6         0.0006      0.0001     -0.0018      0.0000      0.0000
         7         0.0562      1.1417     -0.0000      1.3065      0.1450
         8        -0.4278     -0.4460      0.0000      0.3819      0.0431
         9        -0.0001     -0.0001     -0.0135      0.0002      0.0000
        10        -1.0565      0.1656     -0.0001      1.1437      0.1420
 Ground to excited state transition velocity dipole moments (Au):
       state          X           Y           Z        Dip. S.      Osc.
         1         0.0000     -0.0000      0.0008      0.0000      0.0000
         2         0.0001     -0.0000      0.0002      0.0000      0.0000
         3        -0.1357      0.0145      0.0001      0.0186      0.1018
         4         0.0189     -0.0224     -0.0000      0.0009      0.0041
         5        -0.1068      0.0100     -0.0001      0.0115      0.0548
         6        -0.0001     -0.0000     -0.0019      0.0000      0.0000
         7        -0.0082     -0.1748      0.0000      0.0306      0.1227
         8         0.0731      0.0783     -0.0000      0.0115      0.0452
         9         0.0000      0.0000      0.0023      0.0000      0.0000
        10         0.1847     -0.0284      0.0000      0.0349      0.1250
 Ground to excited state transition magnetic dipole moments (Au):
       state          X           Y           Z
         1         0.0464      0.7327      0.0002
         2        -0.0560     -0.2804      0.0003
         3         0.0001      0.0002     -0.0951
         4         0.0000      0.0002     -1.3818
         5         0.0001      0.0002      0.2839
         6         0.0250     -0.2674      0.0003
         7        -0.0001     -0.0001      0.0705
         8        -0.0001      0.0000     -0.6019
         9        -0.0540     -0.4283     -0.0003
        10         0.0001     -0.0004      0.2495
 Ground to excited state transition velocity quadrupole moments (Au):
       state          XX          YY          ZZ          XY          XZ          YZ
         1        -0.0001      0.0000     -0.0000     -0.0000     -0.0354     -0.0008
         2        -0.0003      0.0001     -0.0000      0.0001      0.0157     -0.0027
         3         0.4821     -0.0954      0.0090     -0.1492     -0.0002      0.0000
         4        -0.2668      0.1136     -0.0083     -0.2529      0.0000      0.0000
         5        -0.6490      0.1704     -0.0234      0.1158     -0.0002      0.0000
         6        -0.0000      0.0000     -0.0000      0.0002      0.0168      0.0018
         7         0.1414     -0.1951      0.0090     -0.1452      0.0001      0.0004
         8        -0.1182      0.0303      0.0248     -0.4980      0.0001      0.0001
         9        -0.0001      0.0000      0.0000     -0.0002      0.0098     -0.0017
        10         0.6378     -0.1181      0.0070     -0.0384      0.0002     -0.0000
 <0|del|b> * <b|rxdel|0> + <0|del|b> * <b|delr+rdel|0>
 Rotatory Strengths (R) in cgs (10**-40 erg-esu-cm/Gauss)
       state          XX          YY          ZZ    R(velocity)    E-M Angle
         1        -0.0162      0.0012     -0.0145     -0.0098       90.00
         2         0.0085     -0.0154     -0.0067     -0.0045       90.00
         3        -0.0320     -0.0289     -0.0313     -0.0307       90.00
         4         0.0440      0.0384     -0.0124      0.0233       90.00
         5        -0.0515     -0.0513     -0.0028     -0.0352       90.00
         6         0.0104     -0.0062      0.0063      0.0035       90.00
         7         0.0485     -0.0045     -0.0025      0.0138       90.00
         8         0.0191      0.0064     -0.0180      0.0025       90.00
         9        -0.0279     -0.0029     -0.0266     -0.0191       90.00
        10         0.0400      0.0500      0.0529      0.0476       90.00
 1/2[<0|r|b>*<b|rxdel|0> + (<0|rxdel|b>*<b|r|0>)*]
 Rotatory Strengths (R) in cgs (10**-40 erg-esu-cm/Gauss)
       state          XX          YY          ZZ     R(length)
         1         0.0014     -0.0220     -0.0000     -0.0069
         2        -0.0300      0.0137     -0.0006     -0.0056
         3        -0.0696      0.0125     -0.0250     -0.0274
         4         0.0012     -0.0217      0.0511      0.0102
         5        -0.0284      0.0105     -0.0661     -0.0280
         6        -0.0101      0.0220      0.0004      0.0041
         7         0.0020      0.0414      0.0013      0.0149
         8        -0.0284      0.0064      0.0149     -0.0024
         9        -0.0040     -0.0418     -0.0030     -0.0163
        10         0.0874      0.0456      0.0231      0.0520
  1/2[<0|del|b>*<b|r|0> + (<0|r|b>*<b|del|0>)*] (Au)
       state          X           Y           Z        Dip. S.   Osc.(frdel)
         1        -0.0000     -0.0000      0.0000     -0.0000     -0.0000
         2        -0.0000     -0.0000      0.0000     -0.0000     -0.0000
         3        -0.1486     -0.0015     -0.0000      0.1501      0.1001
         4        -0.0027     -0.0040     -0.0000      0.0067      0.0045
         5        -0.0801     -0.0007     -0.0000      0.0808      0.0539
         6        -0.0000     -0.0000      0.0000     -0.0000     -0.0000
         7        -0.0005     -0.1996     -0.0000      0.2001      0.1334
         8        -0.0313     -0.0349     -0.0000      0.0662      0.0441
         9        -0.0000     -0.0000     -0.0000      0.0000      0.0000
        10        -0.1951     -0.0047     -0.0000      0.1998      0.1332

 Excitation energies and oscillator strengths:
 
 Excited state symmetry could not be determined.
 Excited State   1:      Singlet-?Sym    2.8303 eV  438.06 nm  f=0.0000  <S**2>=0.000
      57 -> 59         0.69146
 This state for optimization and/or second-order correction.
 Total Energy, E(TD-HF/TD-KS) =  -763.911562900    
 Copying the excited state density for this state as the 1-particle RhoCI density.
 
 Excited state symmetry could not be determined.
 Excited State   2:      Singlet-?Sym    3.1837 eV  389.44 nm  f=0.0000  <S**2>=0.000
      55 -> 59         0.68506
      57 -> 60        -0.13236
 
 Excited state symmetry could not be determined.
 Excited State   3:      Singlet-?Sym    3.3194 eV  373.51 nm  f=0.0984  <S**2>=0.000
      58 -> 59         0.69156
 
 Excited state symmetry could not be determined.
 Excited State   4:      Singlet-?Sym    3.7548 eV  330.20 nm  f=0.0048  <S**2>=0.000
      53 -> 59        -0.14742
      54 -> 59         0.65255
      56 -> 59         0.18525
 
 Excited state symmetry could not be determined.
 Excited State   5:      Singlet-?Sym    3.8108 eV  325.35 nm  f=0.0529  <S**2>=0.000
      54 -> 59        -0.19071
      54 -> 60         0.12835
      56 -> 59         0.65888
 
 Excited state symmetry could not be determined.
 Excited State   6:      Singlet-?Sym    4.3366 eV  285.90 nm  f=0.0000  <S**2>=0.000
      55 -> 59         0.12779
      57 -> 59         0.11333
      57 -> 60         0.68016
 
 Excited state symmetry could not be determined.
 Excited State   7:      Singlet-?Sym    4.5297 eV  273.71 nm  f=0.1450  <S**2>=0.000
      53 -> 59         0.65117
      54 -> 59         0.15282
      54 -> 61         0.11624
      58 -> 60         0.15239
 
 Excited state symmetry could not be determined.
 Excited State   8:      Singlet-?Sym    4.6078 eV  269.08 nm  f=0.0431  <S**2>=0.000
      53 -> 59        -0.14970
      58 -> 60         0.67697
 
 Excited state symmetry could not be determined.
 Excited State   9:      Singlet-?Sym    4.8005 eV  258.27 nm  f=0.0000  <S**2>=0.000
      55 -> 60         0.68869
 
 Excited state symmetry could not be determined.
 Excited State  10:      Singlet-?Sym    5.0695 eV  244.57 nm  f=0.1420  <S**2>=0.000
      53 -> 60        -0.17428
      54 -> 60         0.46850
      56 -> 61        -0.16138
      58 -> 61         0.44178
 SavETr:  write IOETrn=   770 NScale= 10 NData=  16 NLR=1 NState=   10 LETran=     190.
 Leave Link  914 at Mon May 31 15:38:07 2021, MaxMem=    33554432 cpu:      2890.5
 (Enter /opt/app/gaussian09/e01/g09/l601.exe)
 Copying SCF densities to generalized density rwf, IOpCl= 0 IROHF=0.

 **********************************************************************

            Population analysis using the SCF density.

 **********************************************************************

 Alpha  occ. eigenvalues --  -19.20949 -19.15674 -19.14947 -10.29404 -10.29146
 Alpha  occ. eigenvalues --  -10.28865 -10.22816 -10.22726 -10.22612 -10.22443
 Alpha  occ. eigenvalues --  -10.22146 -10.22080 -10.21789 -10.21714 -10.21391
 Alpha  occ. eigenvalues --  -10.21204 -10.21154  -1.09415  -1.05545  -1.04872
 Alpha  occ. eigenvalues --   -0.89078  -0.87931  -0.81271  -0.77569  -0.77298
 Alpha  occ. eigenvalues --   -0.77192  -0.68870  -0.67287  -0.64908  -0.62447
 Alpha  occ. eigenvalues --   -0.59400  -0.57423  -0.56009  -0.52313  -0.50389
 Alpha  occ. eigenvalues --   -0.49514  -0.48581  -0.48255  -0.45574  -0.44816
 Alpha  occ. eigenvalues --   -0.44671  -0.44305  -0.43833  -0.42587  -0.41209
 Alpha  occ. eigenvalues --   -0.40458  -0.39679  -0.38493  -0.37532  -0.37477
 Alpha  occ. eigenvalues --   -0.36497  -0.35489  -0.28667  -0.27593  -0.27575
 Alpha  occ. eigenvalues --   -0.27317  -0.25966  -0.25237
 Alpha virt. eigenvalues --   -0.11140  -0.06506  -0.03667  -0.01854  -0.01539
 Alpha virt. eigenvalues --    0.00577   0.00882   0.02286   0.02734   0.03420
 Alpha virt. eigenvalues --    0.04052   0.04283   0.04832   0.04884   0.05496
 Alpha virt. eigenvalues --    0.06240   0.06480   0.06994   0.07511   0.08489
 Alpha virt. eigenvalues --    0.09025   0.09555   0.10051   0.10834   0.11566
 Alpha virt. eigenvalues --    0.11951   0.12025   0.12655   0.13499   0.13652
 Alpha virt. eigenvalues --    0.13841   0.14426   0.15410   0.15554   0.16351
 Alpha virt. eigenvalues --    0.17130   0.17366   0.17534   0.17628   0.18403
 Alpha virt. eigenvalues --    0.18546   0.18719   0.19351   0.19561   0.19877
 Alpha virt. eigenvalues --    0.20205   0.20607   0.20968   0.21217   0.21758
 Alpha virt. eigenvalues --    0.22164   0.22504   0.23475   0.23987   0.24162
 Alpha virt. eigenvalues --    0.25018   0.25184   0.25296   0.26052   0.26959
 Alpha virt. eigenvalues --    0.27432   0.27709   0.28074   0.28579   0.28730
 Alpha virt. eigenvalues --    0.28865   0.29324   0.30027   0.30278   0.31209
 Alpha virt. eigenvalues --    0.32116   0.32231   0.32665   0.32925   0.33413
 Alpha virt. eigenvalues --    0.33423   0.33625   0.34830   0.35589   0.36583
 Alpha virt. eigenvalues --    0.37776   0.38428   0.38916   0.39725   0.39955
 Alpha virt. eigenvalues --    0.41412   0.42556   0.43146   0.45270   0.47197
 Alpha virt. eigenvalues --    0.48804   0.49517   0.52339   0.56154   0.59303
 Alpha virt. eigenvalues --    0.61413   0.63572   0.65227   0.66492   0.66889
 Alpha virt. eigenvalues --    0.67147   0.68552   0.68770   0.69120   0.69291
 Alpha virt. eigenvalues --    0.71242   0.71762   0.72401   0.72705   0.73082
 Alpha virt. eigenvalues --    0.73116   0.74523   0.75910   0.76017   0.77161
 Alpha virt. eigenvalues --    0.77792   0.78530   0.79029   0.80354   0.81678
 Alpha virt. eigenvalues --    0.84130   0.85051   0.85543   0.88173   0.89632
 Alpha virt. eigenvalues --    0.91820   0.92251   0.92578   0.92848   0.94738
 Alpha virt. eigenvalues --    0.99697   1.01723   1.01817   1.04767   1.05622
 Alpha virt. eigenvalues --    1.07175   1.08388   1.10960   1.12483   1.13120
 Alpha virt. eigenvalues --    1.14410   1.15560   1.16539   1.18355   1.18836
 Alpha virt. eigenvalues --    1.19658   1.20355   1.21363   1.21430   1.22412
 Alpha virt. eigenvalues --    1.23552   1.24108   1.25076   1.25167   1.26854
 Alpha virt. eigenvalues --    1.27561   1.28405   1.31487   1.33089   1.33723
 Alpha virt. eigenvalues --    1.33962   1.35821   1.37165   1.37317   1.38648
 Alpha virt. eigenvalues --    1.39918   1.40676   1.40801   1.43138   1.44551
 Alpha virt. eigenvalues --    1.44695   1.45930   1.46510   1.46749   1.47965
 Alpha virt. eigenvalues --    1.47974   1.51041   1.53373   1.56417   1.61187
 Alpha virt. eigenvalues --    1.65258   1.66754   1.68604   1.68982   1.72410
 Alpha virt. eigenvalues --    1.74138   1.75192   1.77597   1.79285   1.79453
 Alpha virt. eigenvalues --    1.80351   1.82570   1.83134   1.85825   1.87940
 Alpha virt. eigenvalues --    1.88645   1.92341   1.93337   1.93795   1.95666
 Alpha virt. eigenvalues --    1.96484   1.98254   2.00419   2.01727   2.03329
 Alpha virt. eigenvalues --    2.05359   2.06874   2.07434   2.09177   2.10080
 Alpha virt. eigenvalues --    2.13956   2.15032   2.17015   2.19299   2.19354
 Alpha virt. eigenvalues --    2.21823   2.22932   2.25142   2.27034   2.27182
 Alpha virt. eigenvalues --    2.28176   2.28662   2.29870   2.31923   2.41702
 Alpha virt. eigenvalues --    2.42788   2.42960   2.46792   2.48345   2.51575
 Alpha virt. eigenvalues --    2.52753   2.55239   2.55456   2.56392   2.60169
 Alpha virt. eigenvalues --    2.60909   2.63811   2.69859   2.71092   2.71114
 Alpha virt. eigenvalues --    2.71531   2.73027   2.74425   2.77497   2.79288
 Alpha virt. eigenvalues --    2.83169   2.86041   2.86716   2.93011   2.97887
 Alpha virt. eigenvalues --    3.01528   3.06866   3.11457   3.17850   3.23350
 Alpha virt. eigenvalues --    3.26145   3.35215   3.42021   3.48998   4.21745
 Alpha virt. eigenvalues --    4.22499   4.24347   4.25293   4.28865   4.31410
 Alpha virt. eigenvalues --    4.32253   4.33053   4.36094   4.41141   4.42728
 Alpha virt. eigenvalues --    4.45814   4.51387   4.69162   4.72366   4.89483
 Alpha virt. eigenvalues --    5.10215
     Molecular Orbital Coefficients:
                           1         2         3         4         5
                           O         O         O         O         O
     Eigenvalues --   -19.20949 -19.15674 -19.14947 -10.29404 -10.29146
   1 1   C  1S         -0.00000   0.00001  -0.00000   0.00001  -0.00003
   2        2S          0.00000   0.00003  -0.00002   0.00006  -0.00009
   3        2PX        -0.00000  -0.00001  -0.00000   0.00008   0.00003
   4        2PY         0.00000  -0.00000  -0.00000  -0.00003   0.00001
   5        2PZ         0.00000  -0.00000  -0.00000   0.00000  -0.00000
   6        3S          0.00004  -0.00031   0.00025  -0.00204   0.00104
   7        3PX         0.00009   0.00031  -0.00021   0.00083  -0.00066
   8        3PY         0.00003   0.00008  -0.00004   0.00005  -0.00056
   9        3PZ         0.00000   0.00000   0.00000   0.00000  -0.00000
  10        4S         -0.00029   0.00654   0.01148   0.00676  -0.03536
  11        4PX         0.00416  -0.00309  -0.00148  -0.00389   0.01032
  12        4PY        -0.00825   0.00624   0.00011   0.00733  -0.01198
  13        4PZ         0.00000  -0.00000  -0.00000  -0.00000   0.00000
  14        5XX        -0.00000  -0.00001   0.00000  -0.00002  -0.00002
  15        5YY         0.00000  -0.00000  -0.00000  -0.00001   0.00002
  16        5ZZ        -0.00000   0.00002  -0.00000  -0.00000  -0.00004
  17        5XY        -0.00000   0.00001  -0.00000   0.00003  -0.00001
  18        5XZ        -0.00000  -0.00000  -0.00000   0.00000   0.00000
  19        5YZ         0.00000   0.00000   0.00000   0.00000  -0.00000
  20 2   C  1S          0.00000  -0.00000   0.00001  -0.00003  -0.00004
  21        2S         -0.00000  -0.00004   0.00004  -0.00025  -0.00007
  22        2PX        -0.00001   0.00000  -0.00000  -0.00011   0.00008
  23        2PY        -0.00000   0.00002  -0.00000  -0.00001   0.00007
  24        2PZ         0.00000  -0.00000   0.00000  -0.00000  -0.00000
  25        3S          0.00022   0.00011  -0.00047   0.00560  -0.00257
  26        3PX        -0.00013   0.00004   0.00013  -0.00107   0.00077
  27        3PY        -0.00003  -0.00017   0.00023  -0.00249   0.00045
  28        3PZ        -0.00000   0.00000  -0.00000   0.00000   0.00000
  29        4S          0.00020  -0.00265  -0.00599   0.06446   0.02789
  30        4PX         0.00845  -0.00808  -0.00275  -0.02174   0.01971
  31        4PY        -0.00123   0.00147   0.00224  -0.00129  -0.01286
  32        4PZ         0.00000  -0.00000  -0.00000  -0.00001   0.00001
  33        5XX         0.00001   0.00002  -0.00001   0.00007  -0.00003
  34        5YY         0.00000   0.00000  -0.00000   0.00008  -0.00005
  35        5ZZ         0.00000   0.00001   0.00001  -0.00007  -0.00006
  36        5XY        -0.00000  -0.00004   0.00000   0.00003   0.00002
  37        5XZ         0.00000   0.00000  -0.00000   0.00000  -0.00000
  38        5YZ         0.00000  -0.00000  -0.00000   0.00000  -0.00000
  39 3   C  1S          0.00000  -0.00000   0.00001   0.00189   0.00005
  40        2S          0.00001   0.00007   0.00002  -0.00021   0.00021
  41        2PX         0.00001   0.00000  -0.00001   0.00030  -0.00005
  42        2PY         0.00001  -0.00002  -0.00004  -0.00008   0.00003
  43        2PZ        -0.00000  -0.00000   0.00000   0.00000   0.00000
  44        3S         -0.00014  -0.00041   0.00014   0.00881  -0.00534
  45        3PX        -0.00012   0.00034   0.00031  -0.01028   0.00586
  46        3PY        -0.00044   0.00016   0.00009  -0.00093   0.00196
  47        3PZ         0.00000   0.00000   0.00000  -0.00000   0.00000
  48        4S          0.00774   0.00184   0.00719   0.05866  -0.10576
  49        4PX         0.01037  -0.00597  -0.00087  -0.04688   0.01016
  50        4PY        -0.00092  -0.00507   0.00133  -0.05029   0.04245
  51        4PZ         0.00001  -0.00000   0.00001  -0.00002   0.00000
  52        5XX        -0.00000  -0.00000   0.00000  -0.00024   0.00001
  53        5YY         0.00001  -0.00013   0.00004  -0.00019  -0.00000
  54        5ZZ         0.00001  -0.00001   0.00002  -0.00014   0.00002
  55        5XY         0.00000   0.00003  -0.00000   0.00016  -0.00008
  56        5XZ        -0.00000  -0.00000  -0.00000  -0.00000   0.00000
  57        5YZ         0.00000   0.00000  -0.00000   0.00000  -0.00000
  58 4   C  1S          0.00001   0.00000  -0.00001   0.00005   0.00180
  59        2S          0.00003   0.00001   0.00006   0.00018  -0.00018
  60        2PX        -0.00000  -0.00000   0.00001  -0.00004   0.00030
  61        2PY         0.00001   0.00005   0.00002  -0.00003  -0.00000
  62        2PZ         0.00000  -0.00000  -0.00000   0.00000   0.00000
  63        3S         -0.00037   0.00029  -0.00003  -0.00538   0.00843
  64        3PX         0.00008   0.00032   0.00036   0.00440  -0.00985
  65        3PY        -0.00036  -0.00013  -0.00021  -0.00327   0.00377
  66        3PZ        -0.00000   0.00000   0.00000   0.00000  -0.00001
  67        4S         -0.00684  -0.00340   0.01243  -0.10960   0.06406
  68        4PX        -0.01745   0.00234  -0.00401   0.00624  -0.02182
  69        4PY         0.00344  -0.00474  -0.00075  -0.03438   0.06715
  70        4PZ        -0.00001   0.00000  -0.00001   0.00001  -0.00002
  71        5XX        -0.00001   0.00000  -0.00004   0.00004  -0.00029
  72        5YY         0.00000   0.00003  -0.00012  -0.00003  -0.00012
  73        5ZZ         0.00001   0.00002  -0.00002   0.00001  -0.00013
  74        5XY        -0.00001   0.00002  -0.00007   0.00006  -0.00013
  75        5XZ        -0.00000  -0.00000  -0.00000  -0.00000  -0.00000
  76        5YZ         0.00000   0.00000  -0.00000   0.00000  -0.00000
  77 5   C  1S          0.00000   0.00001  -0.00000  -0.00004  -0.00003
  78        2S          0.00002   0.00004  -0.00002  -0.00011  -0.00024
  79        2PX         0.00002   0.00000  -0.00001   0.00005  -0.00011
  80        2PY        -0.00000   0.00000  -0.00002  -0.00009   0.00004
  81        2PZ        -0.00000   0.00000  -0.00000   0.00000  -0.00000
  82        3S         -0.00055  -0.00052   0.00005  -0.00190   0.00574
  83        3PX        -0.00032   0.00003   0.00017   0.00054  -0.00032
  84        3PY        -0.00008  -0.00026   0.00002  -0.00029   0.00294
  85        3PZ         0.00000  -0.00000   0.00000   0.00000   0.00000
  86        4S         -0.00774   0.00248   0.00383   0.02290   0.04562
  87        4PX        -0.02360   0.00508  -0.00447   0.01925  -0.02262
  88        4PY        -0.00035  -0.00012   0.00086   0.00647   0.00494
  89        4PZ        -0.00001   0.00000  -0.00000   0.00001  -0.00001
  90        5XX        -0.00001  -0.00000   0.00003  -0.00004   0.00006
  91        5YY         0.00001  -0.00000  -0.00002  -0.00003   0.00010
  92        5ZZ         0.00000   0.00001   0.00001  -0.00007  -0.00007
  93        5XY        -0.00001  -0.00000   0.00003  -0.00003  -0.00002
  94        5XZ         0.00000  -0.00000   0.00000   0.00000   0.00000
  95        5YZ         0.00000  -0.00000   0.00000   0.00000   0.00000
  96 6   C  1S         -0.00001  -0.00000   0.00001  -0.00002   0.00001
  97        2S         -0.00006  -0.00002   0.00004  -0.00007   0.00008
  98        2PX        -0.00000  -0.00000  -0.00001   0.00003   0.00009
  99        2PY         0.00001   0.00000   0.00000  -0.00002   0.00001
 100        2PZ        -0.00000  -0.00000  -0.00000   0.00000   0.00000
 101        3S          0.00066   0.00033  -0.00033   0.00062  -0.00230
 102        3PX        -0.00027  -0.00021   0.00027  -0.00031   0.00089
 103        3PY        -0.00015   0.00015  -0.00005   0.00057  -0.00050
 104        3PZ        -0.00000  -0.00000   0.00000  -0.00000   0.00000
 105        4S          0.02690  -0.00124   0.00034  -0.03124   0.01505
 106        4PX        -0.01125   0.00367  -0.00060   0.01075  -0.00931
 107        4PY        -0.01048   0.00390  -0.00226   0.00674  -0.00791
 108        4PZ        -0.00000   0.00000   0.00000   0.00000  -0.00000
 109        5XX         0.00000   0.00000  -0.00001  -0.00001  -0.00003
 110        5YY        -0.00002   0.00000   0.00001   0.00001  -0.00001
 111        5ZZ        -0.00002  -0.00000   0.00002  -0.00003   0.00000
 112        5XY         0.00001   0.00000  -0.00001   0.00002  -0.00002
 113        5XZ         0.00000  -0.00000  -0.00000   0.00000   0.00000
 114        5YZ         0.00000   0.00000   0.00000   0.00000   0.00000
 115 7   C  1S         -0.00000  -0.00003  -0.00000   0.99332   0.00093
 116        2S          0.00001   0.00034  -0.00001   0.05095  -0.00027
 117        2PX        -0.00000   0.00004   0.00000   0.00007   0.00000
 118        2PY         0.00001   0.00031   0.00000   0.00079   0.00001
 119        2PZ         0.00000  -0.00000   0.00000  -0.00000   0.00000
 120        3S         -0.00035  -0.00002   0.00017  -0.02738   0.00530
 121        3PX         0.00055  -0.00018  -0.00006   0.00143  -0.00067
 122        3PY        -0.00004  -0.00176  -0.00029   0.01179  -0.00479
 123        3PZ        -0.00000   0.00000  -0.00000  -0.00000   0.00000
 124        4S         -0.00025  -0.00545   0.00163  -0.03216  -0.02983
 125        4PX         0.00462   0.00051  -0.00670  -0.00163   0.00613
 126        4PY         0.00010   0.00407   0.00024   0.02092   0.00379
 127        4PZ         0.00000   0.00000  -0.00000   0.00000  -0.00000
 128        5XX        -0.00001  -0.00013  -0.00001  -0.00880  -0.00001
 129        5YY        -0.00002  -0.00049   0.00002  -0.00784  -0.00007
 130        5ZZ        -0.00000  -0.00020   0.00000  -0.00880  -0.00011
 131        5XY        -0.00000  -0.00005   0.00001   0.00013  -0.00001
 132        5XZ         0.00000   0.00000  -0.00000  -0.00000  -0.00000
 133        5YZ         0.00000   0.00000  -0.00000  -0.00000  -0.00000
 134 8   C  1S          0.00001  -0.00000  -0.00003  -0.00106   0.99333
 135        2S          0.00000  -0.00001   0.00031  -0.00035   0.05097
 136        2PX        -0.00003   0.00000  -0.00003  -0.00000  -0.00012
 137        2PY        -0.00002  -0.00000  -0.00031  -0.00002  -0.00072
 138        2PZ         0.00000   0.00000   0.00000   0.00000   0.00000
 139        3S         -0.00027   0.00038   0.00084   0.00446  -0.02835
 140        3PX        -0.00029  -0.00007  -0.00004   0.00054  -0.00093
 141        3PY         0.00057   0.00019   0.00149   0.00468  -0.01244
 142        3PZ         0.00000  -0.00000   0.00000   0.00000  -0.00001
 143        4S         -0.02363   0.00075   0.00641  -0.02409  -0.03822
 144        4PX        -0.00750  -0.00011  -0.01816   0.01436   0.00833
 145        4PY         0.00327  -0.00026  -0.00329  -0.00478  -0.02024
 146        4PZ        -0.00001  -0.00000   0.00001  -0.00000   0.00000
 147        5XX         0.00010  -0.00001  -0.00013   0.00000  -0.00881
 148        5YY        -0.00001   0.00002  -0.00050  -0.00007  -0.00784
 149        5ZZ         0.00003   0.00000  -0.00021  -0.00009  -0.00877
 150        5XY         0.00004   0.00000  -0.00005  -0.00001   0.00010
 151        5XZ        -0.00000  -0.00000   0.00000   0.00000  -0.00000
 152        5YZ         0.00000   0.00000   0.00000   0.00000  -0.00000
 153 9   C  1S         -0.00001   0.00000  -0.00000   0.00004   0.00211
 154        2S          0.00002   0.00000   0.00007   0.00019  -0.00011
 155        2PX         0.00002   0.00002   0.00001   0.00004  -0.00034
 156        2PY        -0.00001   0.00004  -0.00000  -0.00003   0.00008
 157        2PZ        -0.00000  -0.00000  -0.00000   0.00000   0.00000
 158        3S          0.00078   0.00047  -0.00015  -0.00539   0.00758
 159        3PX        -0.00080  -0.00043  -0.00042  -0.00546   0.01199
 160        3PY         0.00022   0.00022   0.00067  -0.00225   0.00065
 161        3PZ         0.00000   0.00000   0.00000   0.00000  -0.00000
 162        4S         -0.02294  -0.00332   0.01263  -0.11146   0.07782
 163        4PX         0.00647  -0.00307  -0.00519  -0.00285   0.04219
 164        4PY         0.01713  -0.00415   0.00639  -0.05661   0.05147
 165        4PZ         0.00001   0.00000   0.00000  -0.00002  -0.00002
 166        5XX        -0.00004   0.00000   0.00001   0.00001  -0.00027
 167        5YY        -0.00009   0.00004  -0.00011  -0.00002  -0.00019
 168        5ZZ        -0.00002   0.00001  -0.00001   0.00001  -0.00011
 169        5XY        -0.00002  -0.00000   0.00002  -0.00007   0.00016
 170        5XZ        -0.00000   0.00000   0.00000  -0.00000   0.00000
 171        5YZ        -0.00000   0.00000  -0.00000   0.00000  -0.00000
 172 10  C  1S          0.00000  -0.00000   0.00001   0.00193   0.00005
 173        2S          0.00001   0.00008   0.00004  -0.00020   0.00018
 174        2PX        -0.00003  -0.00001   0.00001  -0.00030   0.00006
 175        2PY        -0.00003  -0.00002  -0.00004   0.00001   0.00002
 176        2PZ         0.00000  -0.00000  -0.00000   0.00000   0.00000
 177        3S         -0.00001  -0.00049  -0.00044   0.00876  -0.00490
 178        3PX         0.00070  -0.00022  -0.00019   0.00933  -0.00532
 179        3PY         0.00050   0.00047   0.00052  -0.00395   0.00330
 180        3PZ        -0.00000   0.00000   0.00000  -0.00000   0.00000
 181        4S          0.00321  -0.00022  -0.02276   0.09027  -0.08465
 182        4PX        -0.00142   0.00423  -0.00013   0.01765   0.00407
 183        4PY         0.01638  -0.00734   0.00150  -0.07157   0.04689
 184        4PZ        -0.00000  -0.00000   0.00000  -0.00001   0.00001
 185        5XX         0.00001  -0.00003  -0.00000  -0.00031   0.00005
 186        5YY         0.00002  -0.00010   0.00002  -0.00012  -0.00003
 187        5ZZ         0.00001  -0.00001   0.00002  -0.00014   0.00002
 188        5XY        -0.00001  -0.00007   0.00001  -0.00013   0.00006
 189        5XZ         0.00000   0.00000   0.00000   0.00000  -0.00000
 190        5YZ         0.00000   0.00000   0.00000   0.00000  -0.00000
 191 11  C  1S         -0.00000  -0.00000   0.00000  -0.00003  -0.00004
 192        2S          0.00000  -0.00003   0.00001  -0.00024  -0.00008
 193        2PX         0.00001   0.00001  -0.00000   0.00010  -0.00006
 194        2PY        -0.00001   0.00003   0.00000  -0.00004   0.00009
 195        2PZ        -0.00000  -0.00000   0.00000  -0.00000   0.00000
 196        3S          0.00012   0.00013  -0.00014   0.00544  -0.00261
 197        3PX        -0.00004  -0.00021  -0.00021   0.00023  -0.00059
 198        3PY        -0.00018  -0.00019   0.00004  -0.00266   0.00084
 199        3PZ         0.00000   0.00000  -0.00000   0.00000   0.00000
 200        4S         -0.00376  -0.00088   0.00496   0.05794   0.01583
 201        4PX        -0.01204   0.00890  -0.00210   0.01631  -0.01866
 202        4PY         0.00214  -0.00133  -0.00145  -0.00592  -0.00425
 203        4PZ         0.00001  -0.00000   0.00000  -0.00001   0.00001
 204        5XX        -0.00003   0.00003  -0.00001   0.00006  -0.00003
 205        5YY         0.00001  -0.00002  -0.00000   0.00010  -0.00004
 206        5ZZ         0.00000   0.00001   0.00000  -0.00007  -0.00006
 207        5XY        -0.00000   0.00003   0.00000  -0.00002  -0.00002
 208        5XZ         0.00000  -0.00000   0.00000  -0.00000  -0.00000
 209        5YZ        -0.00000  -0.00000   0.00000   0.00000  -0.00000
 210 12  H  1S          0.00001   0.00003   0.00001  -0.00003   0.00006
 211        2S          0.00007   0.00026   0.00001   0.00069  -0.00039
 212 13  C  1S          0.00000   0.00001   0.00000   0.00001  -0.00003
 213        2S         -0.00001   0.00004   0.00001   0.00005  -0.00010
 214        2PX        -0.00001   0.00001   0.00001  -0.00008  -0.00002
 215        2PY        -0.00002  -0.00000   0.00001  -0.00001   0.00001
 216        2PZ         0.00000  -0.00000   0.00000   0.00000  -0.00000
 217        3S         -0.00014  -0.00043  -0.00013  -0.00185   0.00157
 218        3PX         0.00007  -0.00033  -0.00010  -0.00076   0.00034
 219        3PY         0.00009   0.00014  -0.00009   0.00023  -0.00091
 220        3PZ        -0.00000   0.00000   0.00000   0.00000  -0.00000
 221        4S          0.00553   0.00591  -0.01042   0.00906  -0.01935
 222        4PX        -0.00820   0.00486  -0.00016   0.00423  -0.01137
 223        4PY        -0.00976   0.00540   0.00109   0.00282  -0.00869
 224        4PZ         0.00000  -0.00000  -0.00000  -0.00000   0.00001
 225        5XX         0.00001  -0.00001   0.00000  -0.00004  -0.00002
 226        5YY         0.00003   0.00000   0.00000   0.00000   0.00001
 227        5ZZ        -0.00000   0.00002   0.00000  -0.00001  -0.00004
 228        5XY         0.00002  -0.00001  -0.00000  -0.00003   0.00002
 229        5XZ        -0.00000   0.00000   0.00000  -0.00000  -0.00000
 230        5YZ        -0.00000  -0.00000   0.00000   0.00000  -0.00000
 231 14  C  1S          0.00000  -0.00000   0.00000  -0.00003   0.00001
 232        2S          0.00010  -0.00002   0.00001  -0.00009   0.00004
 233        2PX         0.00000  -0.00000   0.00000  -0.00004  -0.00006
 234        2PY         0.00000   0.00000   0.00000  -0.00000   0.00003
 235        2PZ         0.00000  -0.00000   0.00000  -0.00000   0.00000
 236        3S         -0.00027   0.00038   0.00027   0.00048  -0.00184
 237        3PX        -0.00016   0.00031   0.00018   0.00042  -0.00105
 238        3PY         0.00030   0.00009  -0.00013   0.00035  -0.00097
 239        3PZ         0.00000  -0.00000  -0.00000  -0.00000   0.00000
 240        4S          0.03788  -0.00061  -0.02095  -0.03483   0.02464
 241        4PX         0.00988  -0.00224  -0.00335  -0.00779   0.00759
 242        4PY        -0.02067   0.00517   0.00686   0.00650  -0.01481
 243        4PZ        -0.00001   0.00000   0.00000   0.00000  -0.00001
 244        5XX        -0.00002   0.00000   0.00000  -0.00002  -0.00003
 245        5YY        -0.00011  -0.00000  -0.00001   0.00001   0.00001
 246        5ZZ        -0.00000  -0.00000   0.00001  -0.00004  -0.00001
 247        5XY         0.00001  -0.00000   0.00001  -0.00001   0.00001
 248        5XZ         0.00000   0.00000   0.00000  -0.00000  -0.00000
 249        5YZ        -0.00000  -0.00000  -0.00000   0.00000   0.00000
 250 15  C  1S         -0.00006   0.00001   0.00001  -0.00041  -0.00031
 251        2S          0.00005   0.00004   0.00001  -0.00016  -0.00030
 252        2PX        -0.00011   0.00000  -0.00001  -0.00007   0.00008
 253        2PY        -0.00042   0.00000  -0.00003  -0.00004   0.00004
 254        2PZ         0.00000   0.00000  -0.00000  -0.00000  -0.00000
 255        3S          0.00037  -0.00051  -0.00028  -0.00183   0.00623
 256        3PX        -0.00049  -0.00016   0.00027  -0.00086   0.00291
 257        3PY         0.00011  -0.00041  -0.00061   0.00012   0.00327
 258        3PZ        -0.00000  -0.00000  -0.00000   0.00000  -0.00000
 259        4S         -0.01481   0.00283   0.00147   0.03162   0.03996
[...]
  23         O                -0.812709          1.594445
  24         O                -0.775687          1.753358
  25         O                -0.772984          1.664729
  26         O                -0.771921          1.702585
  27         O                -0.688704          1.767941
  28         O                -0.672867          1.570557
  29         O                -0.649083          1.528371
  30         O                -0.624473          1.708509
  31         O                -0.593997          1.607070
  32         O                -0.574231          1.584502
  33         O                -0.560095          1.280218
  34         O                -0.523128          1.660650
  35         O                -0.503889          1.739446
  36         O                -0.495144          1.434532
  37         O                -0.485813          1.451585
  38         O                -0.482555          1.472884
  39         O                -0.455736          1.188761
  40         O                -0.448160          1.403835
  41         O                -0.446705          1.585717
  42         O                -0.443047          2.236369
  43         O                -0.438329          1.731078
  44         O                -0.425869          1.469122
  45         O                -0.412090          1.866902
  46         O                -0.404584          1.539628
  47         O                -0.396786          1.589229
  48         O                -0.384931          1.838123
  49         O                -0.375317          1.685583
  50         O                -0.374770          1.283418
  51         O                -0.364974          1.587305
  52         O                -0.354887          1.462228
  53         O                -0.286673          1.449044
  54         O                -0.275928          1.186408
  55         O                -0.275751          2.329962
  56         O                -0.273169          1.216739
  57         O                -0.259660          2.384574
  58         O                -0.252371          1.571455
  59         V                -0.111403          1.692851
  60         V                -0.065064          1.447577
  61         V                -0.036667          1.328977
  62         V                -0.018543          1.420374
  63         V                -0.015392          0.497970
  64         V                 0.005773          0.337482
  65         V                 0.008825          0.394221
  66         V                 0.022857          0.296025
  67         V                 0.027336          0.277228
  68         V                 0.034202          1.277608
  69         V                 0.040524          0.323782
  70         V                 0.042833          0.845894
  71         V                 0.048322          0.327104
  72         V                 0.048845          1.206557
  73         V                 0.054965          0.326282
  74         V                 0.062399          0.348430
  75         V                 0.064799          0.306338
  76         V                 0.069942          0.301253
  77         V                 0.075110          0.393192
  78         V                 0.084892          0.292511
  79         V                 0.090255          0.356407
  80         V                 0.095549          0.353545
  81         V                 0.100506          0.276133
  82         V                 0.108344          0.408515
  83         V                 0.115660          0.477744
  84         V                 0.119507          1.077846
  85         V                 0.120251          0.345997
  86         V                 0.126548          0.410217
  87         V                 0.134990          0.307756
  88         V                 0.136522          0.569759
  89         V                 0.138410          0.422750
  90         V                 0.144255          0.887912
  91         V                 0.154104          1.012944
  92         V                 0.155538          0.622003
  93         V                 0.163506          0.446057
  94         V                 0.171297          0.777621
  95         V                 0.173661          0.488105
  96         V                 0.175340          0.813890
  97         V                 0.176284          0.789850
  98         V                 0.184034          0.678118
  99         V                 0.185461          0.432914
 100         V                 0.187190          0.975376
 101         V                 0.193511          1.324039
 102         V                 0.195611          0.718923
 103         V                 0.198773          0.500288
 104         V                 0.202050          0.905253
 105         V                 0.206072          0.899075
 106         V                 0.209681          0.812167
 107         V                 0.212167          0.994211
 108         V                 0.217585          1.012795
 109         V                 0.221641          1.476359
 110         V                 0.225039          0.596029
 111         V                 0.234754          0.836925
 112         V                 0.239875          0.990599
 113         V                 0.241621          1.168417
 114         V                 0.250178          0.439406
 115         V                 0.251840          1.125144
 116         V                 0.252956          0.984031
 117         V                 0.260524          1.166017
 118         V                 0.269592          0.869106
 119         V                 0.274318          0.762732
 120         V                 0.277086          1.441124
 121         V                 0.280744          0.793691
 122         V                 0.285786          1.132236
 123         V                 0.287295          1.837349
 124         V                 0.288651          0.730318
 125         V                 0.293243          1.503142
 126         V                 0.300270          1.375494
 127         V                 0.302777          0.982180
 128         V                 0.312094          0.729990
 129         V                 0.321163          0.909952
 130         V                 0.322310          1.098910
 131         V                 0.326649          1.103918
 132         V                 0.329255          1.043609
 133         V                 0.334130          0.750204
 134         V                 0.334225          0.887109
 135         V                 0.336249          1.254579
 136         V                 0.348295          1.507262
 137         V                 0.355894          1.257689
 138         V                 0.365829          1.113099
 139         V                 0.377759          1.270277
 140         V                 0.384279          1.355401
 141         V                 0.389163          1.172090
 142         V                 0.397249          1.063502
 143         V                 0.399546          1.670103
 144         V                 0.414123          1.471778
 145         V                 0.425562          1.987000
 146         V                 0.431459          1.260563
 147         V                 0.452695          1.199525
 148         V                 0.471973          2.059500
 149         V                 0.488040          2.097350
 150         V                 0.495175          2.389032
 151         V                 0.523393          2.291836
 152         V                 0.561542          1.750386
 153         V                 0.593028          2.519379
 154         V                 0.614134          2.893599
 155         V                 0.635720          2.797625
 156         V                 0.652270          2.131397
 157         V                 0.664916          2.175055
 158         V                 0.668888          2.156039
 159         V                 0.671468          2.767178
 160         V                 0.685519          2.603200
 161         V                 0.687703          2.186157
 162         V                 0.691202          2.230127
 163         V                 0.692913          2.323771
 164         V                 0.712415          2.199498
 165         V                 0.717617          2.569273
 166         V                 0.724010          2.206771
 167         V                 0.727051          2.208776
 168         V                 0.730816          2.709630
 169         V                 0.731158          2.208978
 170         V                 0.745234          2.658682
 171         V                 0.759101          2.516875
 172         V                 0.760172          2.209562
 173         V                 0.771613          2.238475
 174         V                 0.777918          2.262887
 175         V                 0.785303          2.306511
 176         V                 0.790291          2.274001
 177         V                 0.803541          2.257540
 178         V                 0.816784          2.469170
 179         V                 0.841295          2.334414
 180         V                 0.850514          2.333070
 181         V                 0.855431          2.502676
 182         V                 0.881727          2.664408
 183         V                 0.896319          2.667692
 184         V                 0.918196          2.387165
 185         V                 0.922506          2.346567
 186         V                 0.925781          2.308858
 187         V                 0.928479          2.368351
 188         V                 0.947383          2.482610
 189         V                 0.996971          2.394608
 190         V                 1.017226          2.475404
 191         V                 1.018175          2.435694
 192         V                 1.047668          2.307909
 193         V                 1.056215          2.528962
 194         V                 1.071752          2.299138
 195         V                 1.083876          2.883043
 196         V                 1.109605          2.282207
 197         V                 1.124832          2.333189
 198         V                 1.131202          2.353119
 199         V                 1.144098          2.370378
 200         V                 1.155602          2.397778
 201         V                 1.165394          2.292892
 202         V                 1.183548          2.384521
 203         V                 1.188361          2.406336
 204         V                 1.196576          3.463241
 205         V                 1.203549          2.296613
 206         V                 1.213629          2.455381
 207         V                 1.214303          2.442263
 208         V                 1.224117          2.486169
 209         V                 1.235515          2.425330
 210         V                 1.241077          2.519072
 211         V                 1.250763          3.660242
 212         V                 1.251665          2.579263
 213         V                 1.268541          2.507041
 214         V                 1.275613          3.635864
 215         V                 1.284047          2.666437
 216         V                 1.314870          2.886460
 217         V                 1.330887          3.016125
 218         V                 1.337229          2.840939
 219         V                 1.339617          2.545205
 220         V                 1.358212          2.901097
 221         V                 1.371655          2.660635
 222         V                 1.373170          2.611522
 223         V                 1.386479          3.060534
 224         V                 1.399181          2.607476
 225         V                 1.406757          2.816681
 226         V                 1.408011          2.592203
 227         V                 1.431385          2.604409
 228         V                 1.445506          2.646766
 229         V                 1.446952          3.079734
 230         V                 1.459300          2.665773
 231         V                 1.465099          2.663426
 232         V                 1.467492          2.980143
 233         V                 1.479653          2.694483
 234         V                 1.479744          2.777428
 235         V                 1.510413          2.833961
 236         V                 1.533729          3.054593
 237         V                 1.564171          3.514925
 238         V                 1.611865          2.962640
 239         V                 1.652575          3.111732
 240         V                 1.667539          3.185362
 241         V                 1.686040          3.187776
 242         V                 1.689824          2.786682
 243         V                 1.724095          2.814737
 244         V                 1.741380          2.921431
 245         V                 1.751924          2.805237
 246         V                 1.775971          3.262515
 247         V                 1.792853          3.010326
 248         V                 1.794529          3.136313
 249         V                 1.803510          3.257692
 250         V                 1.825699          3.425571
 251         V                 1.831341          3.359654
 252         V                 1.858246          3.297833
 253         V                 1.879400          3.314228
 254         V                 1.886453          3.011118
 255         V                 1.923415          3.308550
 256         V                 1.933372          3.484581
 257         V                 1.937949          3.368959
 258         V                 1.956656          3.450632
 259         V                 1.964845          3.169067
 260         V                 1.982536          3.297059
 261         V                 2.004193          3.358661
 262         V                 2.017266          3.335154
 263         V                 2.033289          3.504646
 264         V                 2.053591          3.763675
 265         V                 2.068745          3.555135
 266         V                 2.074336          3.630557
 267         V                 2.091768          3.665139
 268         V                 2.100799          3.312056
 269         V                 2.139564          3.586328
 270         V                 2.150321          3.390756
 271         V                 2.170147          3.617498
 272         V                 2.192990          3.418873
 273         V                 2.193544          3.605976
 274         V                 2.218225          3.674708
 275         V                 2.229321          3.481095
 276         V                 2.251423          3.519851
 277         V                 2.270342          3.542380
 278         V                 2.271822          3.531752
 279         V                 2.281756          3.555045
 280         V                 2.286617          3.560789
 281         V                 2.298703          3.577564
 282         V                 2.319227          3.813947
 283         V                 2.417015          3.775942
 284         V                 2.427879          3.699368
 285         V                 2.429598          3.841615
 286         V                 2.467921          4.212064
 287         V                 2.483449          4.311421
 288         V                 2.515754          4.111959
 289         V                 2.527526          3.822280
 290         V                 2.552388          4.091848
 291         V                 2.554558          3.834091
 292         V                 2.563922          4.090719
 293         V                 2.601694          3.862905
 294         V                 2.609094          4.194113
 295         V                 2.638105          3.955395
 296         V                 2.698594          4.402733
 297         V                 2.710922          4.012914
 298         V                 2.711137          4.371323
 299         V                 2.715307          4.270327
 300         V                 2.730268          4.425918
 301         V                 2.744253          4.402201
 302         V                 2.774969          4.442319
 303         V                 2.792882          4.435276
 304         V                 2.831686          4.443838
 305         V                 2.860414          4.662395
 306         V                 2.867157          4.585020
 307         V                 2.930106          4.775208
 308         V                 2.978873          4.752324
 309         V                 3.015275          4.780438
 310         V                 3.068656          4.778225
 311         V                 3.114568          4.942145
 312         V                 3.178500          4.985238
 313         V                 3.233503          5.310156
 314         V                 3.261445          5.355120
 315         V                 3.352149          5.405894
 316         V                 3.420212          5.358753
 317         V                 3.489985          5.298932
 318         V                 4.217453         10.598237
 319         V                 4.224986         10.543333
 320         V                 4.243465         10.530018
 321         V                 4.252933         10.861358
 322         V                 4.288647         10.469433
 323         V                 4.314102         10.609038
 324         V                 4.322530         10.616398
 325         V                 4.330534         10.597912
 326         V                 4.360940         10.805815
 327         V                 4.411410         10.368338
 328         V                 4.427283         10.471724
 329         V                 4.458140         10.445838
 330         V                 4.513869         10.707145
 331         V                 4.691624         10.662827
 332         V                 4.723661         11.504351
 333         V                 4.894834         11.627734
 334         V                 5.102150         12.790281
 Total kinetic energy from orbitals= 7.569856061957D+02
 Leave Link  601 at Mon May 31 15:38:10 2021, MaxMem=    33554432 cpu:         1.1
 (Enter /opt/app/gaussian09/e01/g09/l9999.exe)
 1\1\GINC-NB-0510\SP\RB3LYP TD-FC\6-31+G(d)\C14H8O3\ROOT\31-May-2021\0\
 \#p td(NStates=10) b3lyp/6-31+g(d) nosymm density=SCF pop=full\\1_hydr
 oxy_anthraquinone TD\\0,1\C,0,3.96925026,0.34750834,0.00080492\C,0,2.8
 7371764,1.20490369,0.00028415\C,0,1.57423661,0.68196977,-0.00020934\C,
 0,1.37521308,-0.70909446,-0.00018515\C,0,2.48351693,-1.56424412,0.0003
 5477\C,0,3.77275108,-1.03914046,0.00085148\C,0,0.41650091,1.61141888,-
 0.00078595\C,0,0.00434111,-1.31569016,-0.00103352\C,0,-1.16000947,-0.3
 8523837,-0.00037352\C,0,-0.95833619,1.01703738,-0.00024293\C,0,-2.0323
 7939,1.90751107,0.00029307\H,0,-1.82162257,2.97060205,0.00020485\C,0,-
 3.33556816,1.41692171,0.00082606\C,0,-3.56267496,0.04580877,0.00081443
 \C,0,-2.49351972,-0.86347509,0.0001911\H,0,4.97678886,0.75412905,0.001
 1722\H,0,2.99533574,2.28303864,0.00019155\H,0,2.30615222,-2.63439092,0
 .00031669\H,0,4.62884312,-1.70834426,0.00129926\H,0,-4.17940381,2.1010
 5092,0.00131455\H,0,-4.58095489,-0.33984733,0.00126373\O,0,-0.11989972
 ,-2.53405783,-0.00104049\O,0,0.5755467,2.82797671,-0.00104774\O,0,-2.7
 3017386,-2.19709217,0.00009913\H,0,-3.69116215,-2.33803351,0.00061245\
 \Version=ES64L-G09RevE.01\HF=-764.0155751\RMSD=8.118e-09\PG=C01 [X(C14
 H8O3)]\\@


 ABOVE ALL I AM AN OPTIMIST FOR NUMBER THEORY,
 AND I HOLD THE HOPE THAT WE MAY NOT BE FAR FROM
 A TIME WHEN IRREFUTABLE ARITHMETIC WILL CELEBRATE
 ITS TRIUMPHS IN PHYSICS AND CHEMISTRY.
   -- HERMANN MINKOWSKI, 1905
 Job cpu time:       0 days  0 hours 59 minutes 51.2 seconds.
 File lengths (MBytes):  RWF=    295 Int=      0 D2E=      0 Chk=     47 Scr=      1
 Normal termination of Gaussian 09 at Mon May 31 15:38:17 2021.
