1_hydroxy_anthraquinone TD                                              
SP        RB3LYP TD-FC                                                6-31+G(d)           
Number of atoms                            I               25
Info1-9                                    I   N=           9
          58          32           0           0           0         110
           1         218        -501
Charge                                     I                0
Multiplicity                               I                1
Number of electrons                        I              116
Number of alpha electrons                  I               58
Number of beta electrons                   I               58
Number of basis functions                  I              339
Number of independent functions            I              334
Number of point charges in /Mol/           I                0
Number of translation vectors              I                0
Atomic numbers                             I   N=          25
           6           6           6           6           6           6
           6           6           6           6           6           1
           6           6           6           1           1           1
           1           1           1           8           8           8
           1
Nuclear charges                            R   N=          25
  6.00000000E+00  6.00000000E+00  6.00000000E+00  6.00000000E+00  6.00000000E+00
  6.00000000E+00  6.00000000E+00  6.00000000E+00  6.00000000E+00  6.00000000E+00
  6.00000000E+00  1.00000000E+00  6.00000000E+00  6.00000000E+00  6.00000000E+00
  1.00000000E+00  1.00000000E+00  1.00000000E+00  1.00000000E+00  1.00000000E+00
  1.00000000E+00  8.00000000E+00  8.00000000E+00  8.00000000E+00  1.00000000E+00
Current cartesian coordinates              R   N=          75
  7.50079594E+00  6.56695591E-01  1.52107836E-03  5.43053932E+00  2.27693799E+00
  5.36965681E-04  2.97487606E+00  1.28873610E+00 -3.95595269E-04  2.59877610E+00
 -1.33999433E+00 -3.49882794E-04  4.69316684E+00 -2.95599299E+00  6.70418140E-04
  7.12946631E+00 -1.96369088E+00  1.60906401E-03  7.87072654E-01  3.04514037E+00
 -1.48523025E-03  8.20350901E-03 -2.48629408E+00 -1.95306975E-03 -2.19210021E+00
 -7.27995015E-01 -7.05850505E-04 -1.81099294E+00  1.92192212E+00 -4.59071169E-04
 -3.84064045E+00  3.60467352E+00  5.53822038E-04 -3.44236777E+00  5.61362432E+00
  3.87110398E-04 -6.30331032E+00  2.67759398E+00  1.56102717E-03 -6.73247997E+00
  8.65660298E-02  1.53904965E-03 -4.71206938E+00 -1.63173144E+00  3.61126664E-04
  9.40476797E+00  1.42509737E+00  2.21513697E-03  5.66036422E+00  4.31431778E+00
  3.61977041E-04  4.35799612E+00 -4.97827737E+00  5.98457369E-04  8.74724581E+00
 -3.22830279E+00  2.45524558E-03 -7.89792860E+00  3.97041083E+00  2.48413949E-03
 -8.65675017E+00 -6.42218381E-01  2.38810361E-03 -2.26577634E-01 -4.78867530E+00
 -1.96624114E-03  1.08762564E+00  5.34410149E+00 -1.97994166E-03 -5.15928089E+00
 -4.15190249E+00  1.87328552E-04 -6.97528558E+00 -4.41824302E+00  1.15736277E-03
Force Field                                I                0
Int Atom Types                             I   N=          25
           0           0           0           0           0           0
           0           0           0           0           0           0
           0           0           0           0           0           0
           0           0           0           0           0           0
           0
MM charges                                 R   N=          25
  0.00000000E+00  0.00000000E+00  0.00000000E+00  0.00000000E+00  0.00000000E+00
  0.00000000E+00  0.00000000E+00  0.00000000E+00  0.00000000E+00  0.00000000E+00
  0.00000000E+00  0.00000000E+00  0.00000000E+00  0.00000000E+00  0.00000000E+00
  0.00000000E+00  0.00000000E+00  0.00000000E+00  0.00000000E+00  0.00000000E+00
  0.00000000E+00  0.00000000E+00  0.00000000E+00  0.00000000E+00  0.00000000E+00
Integer atomic weights                     I   N=          25
          12          12          12          12          12          12
          12          12          12          12          12           1
          12          12          12           1           1           1
           1           1           1          16          16          16
           1
Real atomic weights                        R   N=          25
  1.20000000E+01  1.20000000E+01  1.20000000E+01  1.20000000E+01  1.20000000E+01
  1.20000000E+01  1.20000000E+01  1.20000000E+01  1.20000000E+01  1.20000000E+01
  1.20000000E+01  1.00782504E+00  1.20000000E+01  1.20000000E+01  1.20000000E+01
  1.00782504E+00  1.00782504E+00  1.00782504E+00  1.00782504E+00  1.00782504E+00
  1.00782504E+00  1.59949146E+01  1.59949146E+01  1.59949146E+01  1.00782504E+00
Atom fragment info                         I   N=          25
           0           0           0           0           0           0
           0           0           0           0           0           0
           0           0           0           0           0           0
           0           0           0           0           0           0
           0
Atom residue num                           I   N=          25
           0           0           0           0           0           0
           0           0           0           0           0           0
           0           0           0           0           0           0
           0           0           0           0           0           0
           0
Nuclear spins                              I   N=          25
           0           0           0           0           0           0
           0           0           0           0           0           1
           0           0           0           1           1           1
           1           1           1           0           0           0
           1
Nuclear ZEff                               R   N=          25
 -3.60000000E+00 -3.60000000E+00 -3.60000000E+00 -3.60000000E+00 -3.60000000E+00
 -3.60000000E+00 -3.60000000E+00 -3.60000000E+00 -3.60000000E+00 -3.60000000E+00
 -3.60000000E+00 -1.00000000E+00 -3.60000000E+00 -3.60000000E+00 -3.60000000E+00
 -1.00000000E+00 -1.00000000E+00 -1.00000000E+00 -1.00000000E+00 -1.00000000E+00
 -1.00000000E+00 -5.60000000E+00 -5.60000000E+00 -5.60000000E+00 -1.00000000E+00
Nuclear ZNuc                               R   N=          25
  6.00000000E+00  6.00000000E+00  6.00000000E+00  6.00000000E+00  6.00000000E+00
  6.00000000E+00  6.00000000E+00  6.00000000E+00  6.00000000E+00  6.00000000E+00
  6.00000000E+00  1.00000000E+00  6.00000000E+00  6.00000000E+00  6.00000000E+00
  1.00000000E+00  1.00000000E+00  1.00000000E+00  1.00000000E+00  1.00000000E+00
  1.00000000E+00  8.00000000E+00  8.00000000E+00  8.00000000E+00  1.00000000E+00
Nuclear QMom                               R   N=          25
  0.00000000E+00  0.00000000E+00  0.00000000E+00  0.00000000E+00  0.00000000E+00
  0.00000000E+00  0.00000000E+00  0.00000000E+00  0.00000000E+00  0.00000000E+00
  0.00000000E+00  0.00000000E+00  0.00000000E+00  0.00000000E+00  0.00000000E+00
  0.00000000E+00  0.00000000E+00  0.00000000E+00  0.00000000E+00  0.00000000E+00
  0.00000000E+00  0.00000000E+00  0.00000000E+00  0.00000000E+00  0.00000000E+00
Nuclear GFac                               R   N=          25
  0.00000000E+00  0.00000000E+00  0.00000000E+00  0.00000000E+00  0.00000000E+00
  0.00000000E+00  0.00000000E+00  0.00000000E+00  0.00000000E+00  0.00000000E+00
  0.00000000E+00  2.79284600E+00  0.00000000E+00  0.00000000E+00  0.00000000E+00
  2.79284600E+00  2.79284600E+00  2.79284600E+00  2.79284600E+00  2.79284600E+00
  2.79284600E+00  0.00000000E+00  0.00000000E+00  0.00000000E+00  2.79284600E+00
MicOpt                                     I   N=          25
          -1          -1          -1          -1          -1          -1
          -1          -1          -1          -1          -1          -1
          -1          -1          -1          -1          -1          -1
          -1          -1          -1          -1          -1          -1
          -1
SymInf integers                            I   N=          26
           1           1           1           1           1           0
           0           0           0           0           0           0
           0           0           0           0           0           0
           0           0           0           0           0           0
           0           0
RotTr to input orientation                 R   N=          12
  1.00000000E+00  1.36217515E-09  0.00000000E+00 -1.36217515E-09  1.00000000E+00
  0.00000000E+00  0.00000000E+00  0.00000000E+00  1.00000000E+00 -2.28070382E-09
  3.25814954E-10 -1.62907425E-09
Number of contracted shells                I              101
Number of primitive shells                 I              236
Pure/Cartesian d shells                    I                1
Pure/Cartesian f shells                    I                0
Highest angular momentum                   I                2
Largest degree of contraction              I                6
Shell types                                I   N=         101
           0          -1          -1          -1           2           0
          -1          -1          -1           2           0          -1
          -1          -1           2           0          -1          -1
          -1           2           0          -1          -1          -1
           2           0          -1          -1          -1           2
           0          -1          -1          -1           2           0
          -1          -1          -1           2           0          -1
          -1          -1           2           0          -1          -1
          -1           2           0          -1          -1          -1
           2           0           0           0          -1          -1
          -1           2           0          -1          -1          -1
           2           0          -1          -1          -1           2
           0           0           0           0           0           0
           0           0           0           0           0           0
           0          -1          -1          -1           2           0
          -1          -1          -1           2           0          -1
          -1          -1           2           0           0
Number of primitives per shell             I   N=         101
           6           3           1           1           1           6
           3           1           1           1           6           3
           1           1           1           6           3           1
           1           1           6           3           1           1
           1           6           3           1           1           1
           6           3           1           1           1           6
           3           1           1           1           6           3
           1           1           1           6           3           1
           1           1           6           3           1           1
           1           3           1           6           3           1
           1           1           6           3           1           1
           1           6           3           1           1           1
           3           1           3           1           3           1
           3           1           3           1           3           1
           6           3           1           1           1           6
           3           1           1           1           6           3
           1           1           1           3           1
Shell to atom map                          I   N=         101
           1           1           1           1           1           2
           2           2           2           2           3           3
           3           3           3           4           4           4
           4           4           5           5           5           5
           5           6           6           6           6           6
           7           7           7           7           7           8
           8           8           8           8           9           9
           9           9           9          10          10          10
          10          10          11          11          11          11
          11          12          12          13          13          13
          13          13          14          14          14          14
          14          15          15          15          15          15
          16          16          17          17          18          18
          19          19          20          20          21          21
          22          22          22          22          22          23
          23          23          23          23          24          24
          24          24          24          25          25
Primitive exponents                        R   N=         236
  3.04752488E+03  4.57369518E+02  1.03948685E+02  2.92101553E+01  9.28666296E+00
  3.16392696E+00  7.86827235E+00  1.88128854E+00  5.44249258E-01  1.68714478E-01
  4.38000000E-02  8.00000000E-01  3.04752488E+03  4.57369518E+02  1.03948685E+02
  2.92101553E+01  9.28666296E+00  3.16392696E+00  7.86827235E+00  1.88128854E+00
  5.44249258E-01  1.68714478E-01  4.38000000E-02  8.00000000E-01  3.04752488E+03
  4.57369518E+02  1.03948685E+02  2.92101553E+01  9.28666296E+00  3.16392696E+00
  7.86827235E+00  1.88128854E+00  5.44249258E-01  1.68714478E-01  4.38000000E-02
  8.00000000E-01  3.04752488E+03  4.57369518E+02  1.03948685E+02  2.92101553E+01
  9.28666296E+00  3.16392696E+00  7.86827235E+00  1.88128854E+00  5.44249258E-01
  1.68714478E-01  4.38000000E-02  8.00000000E-01  3.04752488E+03  4.57369518E+02
  1.03948685E+02  2.92101553E+01  9.28666296E+00  3.16392696E+00  7.86827235E+00
  1.88128854E+00  5.44249258E-01  1.68714478E-01  4.38000000E-02  8.00000000E-01
  3.04752488E+03  4.57369518E+02  1.03948685E+02  2.92101553E+01  9.28666296E+00
  3.16392696E+00  7.86827235E+00  1.88128854E+00  5.44249258E-01  1.68714478E-01
  4.38000000E-02  8.00000000E-01  3.04752488E+03  4.57369518E+02  1.03948685E+02
  2.92101553E+01  9.28666296E+00  3.16392696E+00  7.86827235E+00  1.88128854E+00
  5.44249258E-01  1.68714478E-01  4.38000000E-02  8.00000000E-01  3.04752488E+03
  4.57369518E+02  1.03948685E+02  2.92101553E+01  9.28666296E+00  3.16392696E+00
  7.86827235E+00  1.88128854E+00  5.44249258E-01  1.68714478E-01  4.38000000E-02
  8.00000000E-01  3.04752488E+03  4.57369518E+02  1.03948685E+02  2.92101553E+01
  9.28666296E+00  3.16392696E+00  7.86827235E+00  1.88128854E+00  5.44249258E-01
  1.68714478E-01  4.38000000E-02  8.00000000E-01  3.04752488E+03  4.57369518E+02
  1.03948685E+02  2.92101553E+01  9.28666296E+00  3.16392696E+00  7.86827235E+00
  1.88128854E+00  5.44249258E-01  1.68714478E-01  4.38000000E-02  8.00000000E-01
  3.04752488E+03  4.57369518E+02  1.03948685E+02  2.92101553E+01  9.28666296E+00
  3.16392696E+00  7.86827235E+00  1.88128854E+00  5.44249258E-01  1.68714478E-01
  4.38000000E-02  8.00000000E-01  1.87311370E+01  2.82539436E+00  6.40121692E-01
  1.61277759E-01  3.04752488E+03  4.57369518E+02  1.03948685E+02  2.92101553E+01
  9.28666296E+00  3.16392696E+00  7.86827235E+00  1.88128854E+00  5.44249258E-01
  1.68714478E-01  4.38000000E-02  8.00000000E-01  3.04752488E+03  4.57369518E+02
  1.03948685E+02  2.92101553E+01  9.28666296E+00  3.16392696E+00  7.86827235E+00
  1.88128854E+00  5.44249258E-01  1.68714478E-01  4.38000000E-02  8.00000000E-01
  3.04752488E+03  4.57369518E+02  1.03948685E+02  2.92101553E+01  9.28666296E+00
  3.16392696E+00  7.86827235E+00  1.88128854E+00  5.44249258E-01  1.68714478E-01
  4.38000000E-02  8.00000000E-01  1.87311370E+01  2.82539436E+00  6.40121692E-01
  1.61277759E-01  1.87311370E+01  2.82539436E+00  6.40121692E-01  1.61277759E-01
  1.87311370E+01  2.82539436E+00  6.40121692E-01  1.61277759E-01  1.87311370E+01
  2.82539436E+00  6.40121692E-01  1.61277759E-01  1.87311370E+01  2.82539436E+00
  6.40121692E-01  1.61277759E-01  1.87311370E+01  2.82539436E+00  6.40121692E-01
  1.61277759E-01  5.48467166E+03  8.25234946E+02  1.88046958E+02  5.29645000E+01
  1.68975704E+01  5.79963534E+00  1.55396162E+01  3.59993359E+00  1.01376175E+00
  2.70005823E-01  8.45000000E-02  8.00000000E-01  5.48467166E+03  8.25234946E+02
  1.88046958E+02  5.29645000E+01  1.68975704E+01  5.79963534E+00  1.55396162E+01
  3.59993359E+00  1.01376175E+00  2.70005823E-01  8.45000000E-02  8.00000000E-01
  5.48467166E+03  8.25234946E+02  1.88046958E+02  5.29645000E+01  1.68975704E+01
  5.79963534E+00  1.55396162E+01  3.59993359E+00  1.01376175E+00  2.70005823E-01
  8.45000000E-02  8.00000000E-01  1.87311370E+01  2.82539436E+00  6.40121692E-01
  1.61277759E-01
Contraction coefficients                   R   N=         236
  1.83473713E-03  1.40373228E-02  6.88426223E-02  2.32184443E-01  4.67941348E-01
  3.62311985E-01 -1.19332420E-01 -1.60854152E-01  1.14345644E+00  1.00000000E+00
  1.00000000E+00  1.00000000E+00  1.83473713E-03  1.40373228E-02  6.88426223E-02
  2.32184443E-01  4.67941348E-01  3.62311985E-01 -1.19332420E-01 -1.60854152E-01
  1.14345644E+00  1.00000000E+00  1.00000000E+00  1.00000000E+00  1.83473713E-03
  1.40373228E-02  6.88426223E-02  2.32184443E-01  4.67941348E-01  3.62311985E-01
 -1.19332420E-01 -1.60854152E-01  1.14345644E+00  1.00000000E+00  1.00000000E+00
  1.00000000E+00  1.83473713E-03  1.40373228E-02  6.88426223E-02  2.32184443E-01
  4.67941348E-01  3.62311985E-01 -1.19332420E-01 -1.60854152E-01  1.14345644E+00
  1.00000000E+00  1.00000000E+00  1.00000000E+00  1.83473713E-03  1.40373228E-02
  6.88426223E-02  2.32184443E-01  4.67941348E-01  3.62311985E-01 -1.19332420E-01
 -1.60854152E-01  1.14345644E+00  1.00000000E+00  1.00000000E+00  1.00000000E+00
  1.83473713E-03  1.40373228E-02  6.88426223E-02  2.32184443E-01  4.67941348E-01
  3.62311985E-01 -1.19332420E-01 -1.60854152E-01  1.14345644E+00  1.00000000E+00
  1.00000000E+00  1.00000000E+00  1.83473713E-03  1.40373228E-02  6.88426223E-02
  2.32184443E-01  4.67941348E-01  3.62311985E-01 -1.19332420E-01 -1.60854152E-01
  1.14345644E+00  1.00000000E+00  1.00000000E+00  1.00000000E+00  1.83473713E-03
  1.40373228E-02  6.88426223E-02  2.32184443E-01  4.67941348E-01  3.62311985E-01
 -1.19332420E-01 -1.60854152E-01  1.14345644E+00  1.00000000E+00  1.00000000E+00
  1.00000000E+00  1.83473713E-03  1.40373228E-02  6.88426223E-02  2.32184443E-01
  4.67941348E-01  3.62311985E-01 -1.19332420E-01 -1.60854152E-01  1.14345644E+00
  1.00000000E+00  1.00000000E+00  1.00000000E+00  1.83473713E-03  1.40373228E-02
  6.88426223E-02  2.32184443E-01  4.67941348E-01  3.62311985E-01 -1.19332420E-01
 -1.60854152E-01  1.14345644E+00  1.00000000E+00  1.00000000E+00  1.00000000E+00
  1.83473713E-03  1.40373228E-02  6.88426223E-02  2.32184443E-01  4.67941348E-01
  3.62311985E-01 -1.19332420E-01 -1.60854152E-01  1.14345644E+00  1.00000000E+00
  1.00000000E+00  1.00000000E+00  3.34946043E-02  2.34726953E-01  8.13757326E-01
  1.00000000E+00  1.83473713E-03  1.40373228E-02  6.88426223E-02  2.32184443E-01
  4.67941348E-01  3.62311985E-01 -1.19332420E-01 -1.60854152E-01  1.14345644E+00
  1.00000000E+00  1.00000000E+00  1.00000000E+00  1.83473713E-03  1.40373228E-02
  6.88426223E-02  2.32184443E-01  4.67941348E-01  3.62311985E-01 -1.19332420E-01
 -1.60854152E-01  1.14345644E+00  1.00000000E+00  1.00000000E+00  1.00000000E+00
  1.83473713E-03  1.40373228E-02  6.88426223E-02  2.32184443E-01  4.67941348E-01
  3.62311985E-01 -1.19332420E-01 -1.60854152E-01  1.14345644E+00  1.00000000E+00
  1.00000000E+00  1.00000000E+00  3.34946043E-02  2.34726953E-01  8.13757326E-01
  1.00000000E+00  3.34946043E-02  2.34726953E-01  8.13757326E-01  1.00000000E+00
  3.34946043E-02  2.34726953E-01  8.13757326E-01  1.00000000E+00  3.34946043E-02
  2.34726953E-01  8.13757326E-01  1.00000000E+00  3.34946043E-02  2.34726953E-01
  8.13757326E-01  1.00000000E+00  3.34946043E-02  2.34726953E-01  8.13757326E-01
  1.00000000E+00  1.83107443E-03  1.39501722E-02  6.84450781E-02  2.32714336E-01
  4.70192898E-01  3.58520853E-01 -1.10777550E-01 -1.48026263E-01  1.13076702E+00
  1.00000000E+00  1.00000000E+00  1.00000000E+00  1.83107443E-03  1.39501722E-02
  6.84450781E-02  2.32714336E-01  4.70192898E-01  3.58520853E-01 -1.10777550E-01
 -1.48026263E-01  1.13076702E+00  1.00000000E+00  1.00000000E+00  1.00000000E+00
  1.83107443E-03  1.39501722E-02  6.84450781E-02  2.32714336E-01  4.70192898E-01
  3.58520853E-01 -1.10777550E-01 -1.48026263E-01  1.13076702E+00  1.00000000E+00
  1.00000000E+00  1.00000000E+00  3.34946043E-02  2.34726953E-01  8.13757326E-01
  1.00000000E+00
P(S=P) Contraction coefficients            R   N=         236
  0.00000000E+00  0.00000000E+00  0.00000000E+00  0.00000000E+00  0.00000000E+00
  0.00000000E+00  6.89990666E-02  3.16423961E-01  7.44308291E-01  1.00000000E+00
  1.00000000E+00  0.00000000E+00  0.00000000E+00  0.00000000E+00  0.00000000E+00
  0.00000000E+00  0.00000000E+00  0.00000000E+00  6.89990666E-02  3.16423961E-01
  7.44308291E-01  1.00000000E+00  1.00000000E+00  0.00000000E+00  0.00000000E+00
  0.00000000E+00  0.00000000E+00  0.00000000E+00  0.00000000E+00  0.00000000E+00
  6.89990666E-02  3.16423961E-01  7.44308291E-01  1.00000000E+00  1.00000000E+00
  0.00000000E+00  0.00000000E+00  0.00000000E+00  0.00000000E+00  0.00000000E+00
  0.00000000E+00  0.00000000E+00  6.89990666E-02  3.16423961E-01  7.44308291E-01
  1.00000000E+00  1.00000000E+00  0.00000000E+00  0.00000000E+00  0.00000000E+00
  0.00000000E+00  0.00000000E+00  0.00000000E+00  0.00000000E+00  6.89990666E-02
  3.16423961E-01  7.44308291E-01  1.00000000E+00  1.00000000E+00  0.00000000E+00
  0.00000000E+00  0.00000000E+00  0.00000000E+00  0.00000000E+00  0.00000000E+00
  0.00000000E+00  6.89990666E-02  3.16423961E-01  7.44308291E-01  1.00000000E+00
  1.00000000E+00  0.00000000E+00  0.00000000E+00  0.00000000E+00  0.00000000E+00
  0.00000000E+00  0.00000000E+00  0.00000000E+00  6.89990666E-02  3.16423961E-01
  7.44308291E-01  1.00000000E+00  1.00000000E+00  0.00000000E+00  0.00000000E+00
  0.00000000E+00  0.00000000E+00  0.00000000E+00  0.00000000E+00  0.00000000E+00
  6.89990666E-02  3.16423961E-01  7.44308291E-01  1.00000000E+00  1.00000000E+00
  0.00000000E+00  0.00000000E+00  0.00000000E+00  0.00000000E+00  0.00000000E+00
  0.00000000E+00  0.00000000E+00  6.89990666E-02  3.16423961E-01  7.44308291E-01
  1.00000000E+00  1.00000000E+00  0.00000000E+00  0.00000000E+00  0.00000000E+00
  0.00000000E+00  0.00000000E+00  0.00000000E+00  0.00000000E+00  6.89990666E-02
  3.16423961E-01  7.44308291E-01  1.00000000E+00  1.00000000E+00  0.00000000E+00
  0.00000000E+00  0.00000000E+00  0.00000000E+00  0.00000000E+00  0.00000000E+00
  0.00000000E+00  6.89990666E-02  3.16423961E-01  7.44308291E-01  1.00000000E+00
  1.00000000E+00  0.00000000E+00  0.00000000E+00  0.00000000E+00  0.00000000E+00
  0.00000000E+00  0.00000000E+00  0.00000000E+00  0.00000000E+00  0.00000000E+00
  0.00000000E+00  0.00000000E+00  6.89990666E-02  3.16423961E-01  7.44308291E-01
  1.00000000E+00  1.00000000E+00  0.00000000E+00  0.00000000E+00  0.00000000E+00
  0.00000000E+00  0.00000000E+00  0.00000000E+00  0.00000000E+00  6.89990666E-02
  3.16423961E-01  7.44308291E-01  1.00000000E+00  1.00000000E+00  0.00000000E+00
  0.00000000E+00  0.00000000E+00  0.00000000E+00  0.00000000E+00  0.00000000E+00
  0.00000000E+00  6.89990666E-02  3.16423961E-01  7.44308291E-01  1.00000000E+00
  1.00000000E+00  0.00000000E+00  0.00000000E+00  0.00000000E+00  0.00000000E+00
  0.00000000E+00  0.00000000E+00  0.00000000E+00  0.00000000E+00  0.00000000E+00
  0.00000000E+00  0.00000000E+00  0.00000000E+00  0.00000000E+00  0.00000000E+00
  0.00000000E+00  0.00000000E+00  0.00000000E+00  0.00000000E+00  0.00000000E+00
  0.00000000E+00  0.00000000E+00  0.00000000E+00  0.00000000E+00  0.00000000E+00
  0.00000000E+00  0.00000000E+00  0.00000000E+00  0.00000000E+00  0.00000000E+00
  0.00000000E+00  0.00000000E+00  7.08742682E-02  3.39752839E-01  7.27158577E-01
  1.00000000E+00  1.00000000E+00  0.00000000E+00  0.00000000E+00  0.00000000E+00
  0.00000000E+00  0.00000000E+00  0.00000000E+00  0.00000000E+00  7.08742682E-02
  3.39752839E-01  7.27158577E-01  1.00000000E+00  1.00000000E+00  0.00000000E+00
  0.00000000E+00  0.00000000E+00  0.00000000E+00  0.00000000E+00  0.00000000E+00
  0.00000000E+00  7.08742682E-02  3.39752839E-01  7.27158577E-01  1.00000000E+00
  1.00000000E+00  0.00000000E+00  0.00000000E+00  0.00000000E+00  0.00000000E+00
  0.00000000E+00
Coordinates of each shell                  R   N=         303
  7.50079594E+00  6.56695591E-01  1.52107836E-03  7.50079594E+00  6.56695591E-01
  1.52107836E-03  7.50079594E+00  6.56695591E-01  1.52107836E-03  7.50079594E+00
  6.56695591E-01  1.52107836E-03  7.50079594E+00  6.56695591E-01  1.52107836E-03
  5.43053932E+00  2.27693799E+00  5.36965681E-04  5.43053932E+00  2.27693799E+00
  5.36965681E-04  5.43053932E+00  2.27693799E+00  5.36965681E-04  5.43053932E+00
  2.27693799E+00  5.36965681E-04  5.43053932E+00  2.27693799E+00  5.36965681E-04
  2.97487606E+00  1.28873610E+00 -3.95595269E-04  2.97487606E+00  1.28873610E+00
 -3.95595269E-04  2.97487606E+00  1.28873610E+00 -3.95595269E-04  2.97487606E+00
  1.28873610E+00 -3.95595269E-04  2.97487606E+00  1.28873610E+00 -3.95595269E-04
  2.59877610E+00 -1.33999433E+00 -3.49882794E-04  2.59877610E+00 -1.33999433E+00
 -3.49882794E-04  2.59877610E+00 -1.33999433E+00 -3.49882794E-04  2.59877610E+00
 -1.33999433E+00 -3.49882794E-04  2.59877610E+00 -1.33999433E+00 -3.49882794E-04
  4.69316684E+00 -2.95599299E+00  6.70418140E-04  4.69316684E+00 -2.95599299E+00
  6.70418140E-04  4.69316684E+00 -2.95599299E+00  6.70418140E-04  4.69316684E+00
 -2.95599299E+00  6.70418140E-04  4.69316684E+00 -2.95599299E+00  6.70418140E-04
  7.12946631E+00 -1.96369088E+00  1.60906401E-03  7.12946631E+00 -1.96369088E+00
  1.60906401E-03  7.12946631E+00 -1.96369088E+00  1.60906401E-03  7.12946631E+00
 -1.96369088E+00  1.60906401E-03  7.12946631E+00 -1.96369088E+00  1.60906401E-03
  7.87072654E-01  3.04514037E+00 -1.48523025E-03  7.87072654E-01  3.04514037E+00
 -1.48523025E-03  7.87072654E-01  3.04514037E+00 -1.48523025E-03  7.87072654E-01
  3.04514037E+00 -1.48523025E-03  7.87072654E-01  3.04514037E+00 -1.48523025E-03
  8.20350901E-03 -2.48629408E+00 -1.95306975E-03  8.20350901E-03 -2.48629408E+00
 -1.95306975E-03  8.20350901E-03 -2.48629408E+00 -1.95306975E-03  8.20350901E-03
 -2.48629408E+00 -1.95306975E-03  8.20350901E-03 -2.48629408E+00 -1.95306975E-03
 -2.19210021E+00 -7.27995015E-01 -7.05850505E-04 -2.19210021E+00 -7.27995015E-01
 -7.05850505E-04 -2.19210021E+00 -7.27995015E-01 -7.05850505E-04 -2.19210021E+00
 -7.27995015E-01 -7.05850505E-04 -2.19210021E+00 -7.27995015E-01 -7.05850505E-04
 -1.81099294E+00  1.92192212E+00 -4.59071169E-04 -1.81099294E+00  1.92192212E+00
 -4.59071169E-04 -1.81099294E+00  1.92192212E+00 -4.59071169E-04 -1.81099294E+00
  1.92192212E+00 -4.59071169E-04 -1.81099294E+00  1.92192212E+00 -4.59071169E-04
 -3.84064045E+00  3.60467352E+00  5.53822038E-04 -3.84064045E+00  3.60467352E+00
  5.53822038E-04 -3.84064045E+00  3.60467352E+00  5.53822038E-04 -3.84064045E+00
  3.60467352E+00  5.53822038E-04 -3.84064045E+00  3.60467352E+00  5.53822038E-04
 -3.44236777E+00  5.61362432E+00  3.87110398E-04 -3.44236777E+00  5.61362432E+00
  3.87110398E-04 -6.30331032E+00  2.67759398E+00  1.56102717E-03 -6.30331032E+00
  2.67759398E+00  1.56102717E-03 -6.30331032E+00  2.67759398E+00  1.56102717E-03
 -6.30331032E+00  2.67759398E+00  1.56102717E-03 -6.30331032E+00  2.67759398E+00
  1.56102717E-03 -6.73247997E+00  8.65660298E-02  1.53904965E-03 -6.73247997E+00
  8.65660298E-02  1.53904965E-03 -6.73247997E+00  8.65660298E-02  1.53904965E-03
 -6.73247997E+00  8.65660298E-02  1.53904965E-03 -6.73247997E+00  8.65660298E-02
  1.53904965E-03 -4.71206938E+00 -1.63173144E+00  3.61126664E-04 -4.71206938E+00
 -1.63173144E+00  3.61126664E-04 -4.71206938E+00 -1.63173144E+00  3.61126664E-04
 -4.71206938E+00 -1.63173144E+00  3.61126664E-04 -4.71206938E+00 -1.63173144E+00
  3.61126664E-04  9.40476797E+00  1.42509737E+00  2.21513697E-03  9.40476797E+00
  1.42509737E+00  2.21513697E-03  5.66036422E+00  4.31431778E+00  3.61977041E-04
  5.66036422E+00  4.31431778E+00  3.61977041E-04  4.35799612E+00 -4.97827737E+00
  5.98457369E-04  4.35799612E+00 -4.97827737E+00  5.98457369E-04  8.74724581E+00
 -3.22830279E+00  2.45524558E-03  8.74724581E+00 -3.22830279E+00  2.45524558E-03
 -7.89792860E+00  3.97041083E+00  2.48413949E-03 -7.89792860E+00  3.97041083E+00
  2.48413949E-03 -8.65675017E+00 -6.42218381E-01  2.38810361E-03 -8.65675017E+00
 -6.42218381E-01  2.38810361E-03 -2.26577634E-01 -4.78867530E+00 -1.96624114E-03
 -2.26577634E-01 -4.78867530E+00 -1.96624114E-03 -2.26577634E-01 -4.78867530E+00
 -1.96624114E-03 -2.26577634E-01 -4.78867530E+00 -1.96624114E-03 -2.26577634E-01
 -4.78867530E+00 -1.96624114E-03  1.08762564E+00  5.34410149E+00 -1.97994166E-03
  1.08762564E+00  5.34410149E+00 -1.97994166E-03  1.08762564E+00  5.34410149E+00
 -1.97994166E-03  1.08762564E+00  5.34410149E+00 -1.97994166E-03  1.08762564E+00
  5.34410149E+00 -1.97994166E-03 -5.15928089E+00 -4.15190249E+00  1.87328552E-04
 -5.15928089E+00 -4.15190249E+00  1.87328552E-04 -5.15928089E+00 -4.15190249E+00
  1.87328552E-04 -5.15928089E+00 -4.15190249E+00  1.87328552E-04 -5.15928089E+00
 -4.15190249E+00  1.87328552E-04 -6.97528558E+00 -4.41824302E+00  1.15736277E-03
 -6.97528558E+00 -4.41824302E+00  1.15736277E-03
Constraint Structure                       R   N=          75
  7.50079594E+00  6.56695591E-01  1.52107836E-03  5.43053932E+00  2.27693799E+00
  5.36965681E-04  2.97487606E+00  1.28873610E+00 -3.95595269E-04  2.59877610E+00
 -1.33999433E+00 -3.49882794E-04  4.69316684E+00 -2.95599299E+00  6.70418140E-04