 Entering Link 1 = C:\G09W\l1.exe PID=     22120.
  
 Copyright (c) 1988,1990,1992,1993,1995,1998,2003,2009,2013,
            Gaussian, Inc.  All Rights Reserved.
  
 This is part of the Gaussian(R) 09 program.  It is based on
 the Gaussian(R) 03 system (copyright 2003, Gaussian, Inc.),
 the Gaussian(R) 98 system (copyright 1998, Gaussian, Inc.),
 the Gaussian(R) 94 system (copyright 1995, Gaussian, Inc.),
 the Gaussian 92(TM) system (copyright 1992, Gaussian, Inc.),
 the Gaussian 90(TM) system (copyright 1990, Gaussian, Inc.),
 the Gaussian 88(TM) system (copyright 1988, Gaussian, Inc.),
 the Gaussian 86(TM) system (copyright 1986, Carnegie Mellon
 University), and the Gaussian 82(TM) system (copyright 1983,
 Carnegie Mellon University). Gaussian is a federally registered
 trademark of Gaussian, Inc.
  
 This software contains proprietary and confidential information,
 including trade secrets, belonging to Gaussian, Inc.
  
 This software is provided under written license and may be
 used, copied, transmitted, or stored only in accord with that
 written license.
  
 The following legend is applicable only to US Government
 contracts under FAR:
  
                    RESTRICTED RIGHTS LEGEND
  
 Use, reproduction and disclosure by the US Government is
 subject to restrictions as set forth in subparagraphs (a)
 and (c) of the Commercial Computer Software - Restricted
 Rights clause in FAR 52.227-19.
  
 Gaussian, Inc.
 340 Quinnipiac St., Bldg. 40, Wallingford CT 06492
  
  
 ---------------------------------------------------------------
 Warning -- This program may not be used in any manner that
 competes with the business of Gaussian, Inc. or will provide
 assistance to any competitor of Gaussian, Inc.  The licensee
 of this program is prohibited from giving any competitor of
 Gaussian, Inc. access to this program.  By using this program,
 the user acknowledges that Gaussian, Inc. is engaged in the
 business of creating and licensing software in the field of
 computational chemistry and represents and warrants to the
 licensee that it is not a competitor of Gaussian, Inc. and that
 it will not use this program in any manner prohibited above.
 ---------------------------------------------------------------
  

 Cite this work as:
 Gaussian 09, Revision D.01,
 M. J. Frisch, G. W. Trucks, H. B. Schlegel, G. E. Scuseria, 
 M. A. Robb, J. R. Cheeseman, G. Scalmani, V. Barone, B. Mennucci, 
 G. A. Petersson, H. Nakatsuji, M. Caricato, X. Li, H. P. Hratchian, 
 A. F. Izmaylov, J. Bloino, G. Zheng, J. L. Sonnenberg, M. Hada, 
 M. Ehara, K. Toyota, R. Fukuda, J. Hasegawa, M. Ishida, T. Nakajima, 
 Y. Honda, O. Kitao, H. Nakai, T. Vreven, J. A. Montgomery, Jr., 
 J. E. Peralta, F. Ogliaro, M. Bearpark, J. J. Heyd, E. Brothers, 
 K. N. Kudin, V. N. Staroverov, T. Keith, R. Kobayashi, J. Normand, 
 K. Raghavachari, A. Rendell, J. C. Burant, S. S. Iyengar, J. Tomasi, 
 M. Cossi, N. Rega, J. M. Millam, M. Klene, J. E. Knox, J. B. Cross, 
 V. Bakken, C. Adamo, J. Jaramillo, R. Gomperts, R. E. Stratmann, 
 O. Yazyev, A. J. Austin, R. Cammi, C. Pomelli, J. W. Ochterski, 
 R. L. Martin, K. Morokuma, V. G. Zakrzewski, G. A. Voth, 
 P. Salvador, J. J. Dannenberg, S. Dapprich, A. D. Daniels, 
 O. Farkas, J. B. Foresman, J. V. Ortiz, J. Cioslowski, 
 and D. J. Fox, Gaussian, Inc., Wallingford CT, 2013.
 
 ******************************************
 Gaussian 09:  EM64W-G09RevD.01 13-Apr-2013
                07-Jun-2021 
 ******************************************
 %chk=C:\G09W\mine\substituent\mini\3\mini_3_pp.chk
 -------------------------------------------------------------------
 #p td=(nstates=10) b3lyp/6-31g(d) nosymm geom=connectivity pop=full
 -------------------------------------------------------------------
 1/38=1,57=2/1;
 2/12=2,15=1,17=6,18=5,40=1/2;
 3/5=1,6=6,7=1,11=9,16=1,25=1,30=1,74=-5/1,2,8,3;
 4//1;
 5/5=2,38=5/2;
 8/6=1,10=2,108=10/1;
 9/41=10,42=1,70=2/14;
 6/7=3/1;
 99/5=1,9=1/99;
 Leave Link    1 at Mon Jun 07 15:16:32 2021, MaxMem=           0 cpu:         0.0
 (Enter C:\G09W\l101.exe)
 ---
 opt
 ---
 Symbolic Z-matrix:
 Charge =  0 Multiplicity = 1
 C                     3.05401  -0.43202   0. 
 H                     3.01094  -1.52258   0. 
 C                     1.89764   0.25671  0. 
 H                     1.93402   1.34775  0. 
 C                     0.58098  -0.34684  -0.00001 
 H                     0.54199  -1.43738  0. 
 C                    -0.58098   0.34684  -0.00001 
 H                    -0.54199   1.43738  -0.00001 
 C                    -1.89764  -0.25671  0. 
 H                    -1.93402  -1.34775  0. 
 C                    -3.05401   0.43202   0. 
 H                    -3.01094   1.52258   0.00001 
 C                     4.42262   0.17889   0.00001 
 H                     5.00129  -0.13582  -0.8799 
 H                     4.37566   1.27319   0. 
 H                     5.00128  -0.13581   0.87992 
 C                    -4.42262  -0.17889   0.00001 
 H                    -5.00128   0.13581   0.87992 
 H                    -5.00129   0.13582  -0.8799 
 H                    -4.37566  -1.27319   0. 
 
 NAtoms=     20 NQM=       20 NQMF=       0 NMMI=      0 NMMIF=      0
                NMic=       0 NMicF=      0.
                    Isotopes and Nuclear Properties:
 (Nuclear quadrupole moments (NQMom) in fm**2, nuclear magnetic moments (NMagM)
  in nuclear magnetons)

  Atom         1           2           3           4           5           6           7           8           9          10
 IAtWgt=          12           1          12           1          12           1          12           1          12           1
 AtmWgt=  12.0000000   1.0078250  12.0000000   1.0078250  12.0000000   1.0078250  12.0000000   1.0078250  12.0000000   1.0078250
 NucSpn=           0           1           0           1           0           1           0           1           0           1
 AtZEff=   0.0000000   0.0000000   0.0000000   0.0000000   0.0000000   0.0000000   0.0000000   0.0000000   0.0000000   0.0000000
 NQMom=    0.0000000   0.0000000   0.0000000   0.0000000   0.0000000   0.0000000   0.0000000   0.0000000   0.0000000   0.0000000
 NMagM=    0.0000000   2.7928460   0.0000000   2.7928460   0.0000000   2.7928460   0.0000000   2.7928460   0.0000000   2.7928460
 AtZNuc=   6.0000000   1.0000000   6.0000000   1.0000000   6.0000000   1.0000000   6.0000000   1.0000000   6.0000000   1.0000000

  Atom        11          12          13          14          15          16          17          18          19          20
 IAtWgt=          12           1          12           1           1           1          12           1           1           1
 AtmWgt=  12.0000000   1.0078250  12.0000000   1.0078250   1.0078250   1.0078250  12.0000000   1.0078250   1.0078250   1.0078250
 NucSpn=           0           1           0           1           1           1           0           1           1           1
 AtZEff=   0.0000000   0.0000000   0.0000000   0.0000000   0.0000000   0.0000000   0.0000000   0.0000000   0.0000000   0.0000000
 NQMom=    0.0000000   0.0000000   0.0000000   0.0000000   0.0000000   0.0000000   0.0000000   0.0000000   0.0000000   0.0000000
 NMagM=    0.0000000   2.7928460   0.0000000   2.7928460   2.7928460   2.7928460   0.0000000   2.7928460   2.7928460   2.7928460
 AtZNuc=   6.0000000   1.0000000   6.0000000   1.0000000   1.0000000   1.0000000   6.0000000   1.0000000   1.0000000   1.0000000
 Leave Link  101 at Mon Jun 07 15:16:33 2021, MaxMem=    33554432 cpu:         0.0
 (Enter C:\G09W\l202.exe)
                          Input orientation:                          
 ---------------------------------------------------------------------
 Center     Atomic      Atomic             Coordinates (Angstroms)
 Number     Number       Type             X           Y           Z
 ---------------------------------------------------------------------
      1          6           0        3.054010   -0.432023    0.000000
      2          1           0        3.010941   -1.522581    0.000003
      3          6           0        1.897641    0.256713   -0.000002
      4          1           0        1.934023    1.347746   -0.000002
      5          6           0        0.580982   -0.346835   -0.000006
      6          1           0        0.541992   -1.437377   -0.000002
      7          6           0       -0.580982    0.346835   -0.000007
      8          1           0       -0.541992    1.437377   -0.000006
      9          6           0       -1.897641   -0.256713   -0.000004
     10          1           0       -1.934023   -1.347746   -0.000004
     11          6           0       -3.054010    0.432023    0.000001
     12          1           0       -3.010941    1.522581    0.000005
     13          6           0        4.422617    0.178888    0.000005
     14          1           0        5.001295   -0.135820   -0.879902
     15          1           0        4.375660    1.273185    0.000002
     16          1           0        5.001284   -0.135813    0.879923
     17          6           0       -4.422617   -0.178888    0.000006
     18          1           0       -5.001284    0.135812    0.879924
     19          1           0       -5.001295    0.135821   -0.879901
     20          1           0       -4.375660   -1.273185    0.000001
 ---------------------------------------------------------------------
                    Distance matrix (angstroms):
                    1          2          3          4          5
     1  C    0.000000
     2  H    1.091408   0.000000
     3  C    1.345937   2.098886   0.000000
     4  H    2.102843   3.065702   1.091639   0.000000
     5  C    2.474495   2.699459   1.448399   2.168484   0.000000
     6  H    2.705729   2.470419   2.169729   3.113625   1.091239
     7  C    3.717497   4.049275   2.480261   2.706857   1.353270
     8  H    4.052886   4.624358   2.710309   2.477637   2.108194
     9  C    4.954753   5.069181   3.829853   4.154027   2.480261
    10  H    5.071392   4.948054   4.154027   4.714600   2.706857
    11  C    6.168832   6.372135   4.954753   5.071392   3.717497
    12  H    6.372135   6.748042   5.069181   4.948054   4.049275
    13  C    1.498765   2.210843   2.526175   2.749423   3.877440
    14  H    2.157286   2.580474   3.249765   3.518998   4.511974
    15  H    2.157427   3.111071   2.678394   2.442775   4.126021
    16  H    2.157286   2.580475   3.249761   3.518992   4.511970
    17  C    7.480911   7.554025   6.335251   6.537391   5.006417
    18  H    8.123082   8.229233   6.955865   7.095177   5.671765
    19  H    8.123091   8.229244   6.955872   7.095183   5.671771
    20  H    7.477135   7.390810   6.457158   6.832377   5.042462
                    6          7          8          9         10
     6  H    0.000000
     7  C    2.108194   0.000000
     8  H    3.072333   1.091239   0.000000
     9  C    2.710309   1.448399   2.169729   0.000000
    10  H    2.477637   2.168484   3.113625   1.091639   0.000000
    11  C    4.052886   2.474495   2.705729   1.345937   2.102843
    12  H    4.624358   2.699459   2.470419   2.098886   3.065702
    13  C    4.203756   5.006417   5.121634   6.335251   6.537391
    14  H    4.727966   5.671771   5.828996   6.955872   7.095183
    15  H    4.695121   5.042462   4.920392   6.457158   6.832377
    16  H    4.727962   5.671765   5.828989   6.955865   7.095177
    17  C    5.121634   3.877440   4.203756   2.526175   2.749423
    18  H    5.828988   4.511971   4.727963   3.249761   3.518992
    19  H    5.828997   4.511974   4.727964   3.249765   3.518998
    20  H    4.920392   4.126021   4.695121   2.678394   2.442775
                   11         12         13         14         15
    11  C    0.000000
    12  H    1.091408   0.000000
    13  C    7.480911   7.554025   0.000000
    14  H    8.123091   8.229244   1.099157   0.000000
    15  H    7.477135   7.390810   1.095304   1.775090   0.000000
    16  H    8.123082   8.229233   1.099158   1.759825   1.775089
    17  C    1.498765   2.210843   8.852467   9.464999   8.917297
    18  H    2.157286   2.580475   9.464989  10.159840   9.486567
    19  H    2.157286   2.580474   9.464999  10.006278   9.486575
    20  H    2.157427   3.111071   8.917297   9.486575   9.114253
                   16         17         18         19         20
    16  H    0.000000
    17  C    9.464989   0.000000
    18  H   10.006255   1.099158   0.000000
    19  H   10.159840   1.099157   1.759825   0.000000
    20  H    9.486567   1.095304   1.775089   1.775090   0.000000
 Symmetry turned off by external request.
 Stoichiometry    C8H12
 Framework group  C1[X(C8H12)]
 Deg. of freedom    54
 Full point group                 C1      NOp   1
 Rotational constants (GHZ):     17.6282920      0.5282167      0.5161191
 Leave Link  202 at Mon Jun 07 15:16:33 2021, MaxMem=    33554432 cpu:         0.0
 (Enter C:\G09W\l301.exe)
 Standard basis: 6-31G(d) (6D, 7F)
 Ernie: Thresh=  0.10000D-02 Tol=  0.10000D-05 Strict=F.
   144 basis functions,   272 primitive gaussians,   144 cartesian basis functions
    30 alpha electrons       30 beta electrons
       nuclear repulsion energy       312.8364190484 Hartrees.
 IExCor=  402 DFT=T Ex+Corr=B3LYP ExCW=0 ScaHFX=  0.200000
 ScaDFX=  0.800000  0.720000  1.000000  0.810000 ScalE2=  1.000000  1.000000
 IRadAn=      0 IRanWt=     -1 IRanGd=            0 ICorTp=0 IEmpDi=  4
 NAtoms=   20 NActive=   20 NUniq=   20 SFac= 1.00D+00 NAtFMM=   60 NAOKFM=F Big=F
 Integral buffers will be    131072 words long.
 Regular integral format.
 Two-electron integral symmetry is turned off.
 Leave Link  301 at Mon Jun 07 15:16:33 2021, MaxMem=    33554432 cpu:         0.0
 (Enter C:\G09W\l302.exe)
 NPDir=0 NMtPBC=     1 NCelOv=     1 NCel=       1 NClECP=     1 NCelD=      1
         NCelK=      1 NCelE2=     1 NClLst=     1 CellRange=     0.0.
 One-electron integrals computed using PRISM.
 NBasis=   144 RedAO= T EigKep=  2.03D-03  NBF=   144
 NBsUse=   144 1.00D-06 EigRej= -1.00D+00 NBFU=   144
 Precomputing XC quadrature grid using
 IXCGrd= 4 IRadAn=           0 IRanWt=          -1 IRanGd=           0 AccXCQ= 0.00D+00.
 Generated NRdTot=       0 NPtTot=           0 NUsed=           0 NTot=          32
 NSgBfM=   143   143   143   143   143 MxSgAt=    20 MxSgA2=    20.
 Leave Link  302 at Mon Jun 07 15:16:33 2021, MaxMem=    33554432 cpu:         0.0
 (Enter C:\G09W\l308.exe)
 Leave Link  308 at Mon Jun 07 15:16:33 2021, MaxMem=    33554432 cpu:         0.0
 (Enter C:\G09W\l303.exe)
 DipDrv:  MaxL=1.
 Leave Link  303 at Mon Jun 07 15:16:34 2021, MaxMem=    33554432 cpu:         0.0
 (Enter C:\G09W\l401.exe)
 ExpMin= 1.61D-01 ExpMax= 3.05D+03 ExpMxC= 4.57D+02 IAcc=1 IRadAn=         1 AccDes= 0.00D+00
 Harris functional with IExCor=  402 and IRadAn=       1 diagonalized for initial guess.
 HarFok:  IExCor=  402 AccDes= 0.00D+00 IRadAn=         1 IDoV= 1 UseB2=F ITyADJ=14
 ICtDFT=  3500011 ScaDFX=  1.000000  1.000000  1.000000  1.000000
 FoFCou: FMM=F IPFlag=           0 FMFlag=      100000 FMFlg1=           0
         NFxFlg=           0 DoJE=T BraDBF=F KetDBF=T FulRan=T
         wScrn=  0.000000 ICntrl=     500 IOpCl=  0 I1Cent=   200000004 NGrid=           0
         NMat0=    1 NMatS0=      1 NMatT0=    0 NMatD0=    1 NMtDS0=    0 NMtDT0=    0
 Symmetry not used in FoFCou.
 Harris En= -312.117044530841    
 JPrj=0 DoOrth=F DoCkMO=F.
 Leave Link  401 at Mon Jun 07 15:16:35 2021, MaxMem=    33554432 cpu:         1.0
 (Enter C:\G09W\l502.exe)
 Closed shell SCF:
 Using DIIS extrapolation, IDIIS=  1040.
 Two-electron integral symmetry not used.
 IVT=       82526 IEndB=       82526 NGot=    33554432 MDV=    33509427
 LenX=    33509427 LenY=    33488250
 Requested convergence on RMS density matrix=1.00D-08 within 128 cycles.
 Requested convergence on MAX density matrix=1.00D-06.
 Requested convergence on             energy=1.00D-06.
 No special actions if energy rises.
 Fock matrices will be formed incrementally for  20 cycles.
 Integral accuracy reduced to 1.0D-05 until final iterations.

 Cycle   1  Pass 0  IDiag  1:
 FoFJK:  IHMeth= 1 ICntrl=       0 DoSepK=F KAlg= 0 I1Cent=   0 FoldK=F
 IRaf= 830000000 NMat=   1 IRICut=       1 DoRegI=T DoRafI=F ISym2E= 0.
 FoFCou: FMM=F IPFlag=           0 FMFlag=      100000 FMFlg1=           0
         NFxFlg=           0 DoJE=F BraDBF=F KetDBF=F FulRan=T
         wScrn=  0.000000 ICntrl=       0 IOpCl=  0 I1Cent=           0 NGrid=           0
         NMat0=    1 NMatS0=      1 NMatT0=    0 NMatD0=    1 NMtDS0=    0 NMtDT0=    0
 Symmetry not used in FoFCou.
 E= -311.769626481945    
 DIIS: error= 5.17D-02 at cycle   1 NSaved=   1.
 NSaved= 1 IEnMin= 1 EnMin= -311.769626481945     IErMin= 1 ErrMin= 5.17D-02
 ErrMax= 5.17D-02  0.00D+00 EMaxC= 1.00D-01 BMatC= 2.35D-01 BMatP= 2.35D-01
 IDIUse=3 WtCom= 4.83D-01 WtEn= 5.17D-01
 Coeff-Com:  0.100D+01
 Coeff-En:   0.100D+01
 Coeff:      0.100D+01
 Gap=     0.159 Goal=   None    Shift=    0.000
 GapD=    0.159 DampG=1.000 DampE=0.500 DampFc=0.5000 IDamp=-1.
 Damping current iteration by 5.00D-01
 RMSDP=7.58D-03 MaxDP=1.33D-01              OVMax= 1.70D-01

 Cycle   2  Pass 0  IDiag  1:
 RMSU=  3.71D-03    CP:  9.70D-01
 E= -311.901772143307     Delta-E=       -0.132145661362 Rises=F Damp=T
 DIIS: error= 7.66D-03 at cycle   2 NSaved=   2.
 NSaved= 2 IEnMin= 2 EnMin= -311.901772143307     IErMin= 2 ErrMin= 7.66D-03
 ErrMax= 7.66D-03  0.00D+00 EMaxC= 1.00D-01 BMatC= 8.03D-03 BMatP= 2.35D-01
 IDIUse=3 WtCom= 9.23D-01 WtEn= 7.66D-02
 Coeff-Com: -0.384D-02 0.100D+01
 Coeff-En:   0.000D+00 0.100D+01
 Coeff:     -0.355D-02 0.100D+01
 Gap=     0.160 Goal=   None    Shift=    0.000
 RMSDP=1.26D-03 MaxDP=1.39D-02 DE=-1.32D-01 OVMax= 8.70D-02

 Cycle   3  Pass 0  IDiag  1:
 RMSU=  1.21D-03    CP:  9.65D-01  9.12D-01
 E= -312.037973430677     Delta-E=       -0.136201287370 Rises=F Damp=F
 DIIS: error= 1.72D-03 at cycle   3 NSaved=   3.
 NSaved= 3 IEnMin= 3 EnMin= -312.037973430677     IErMin= 3 ErrMin= 1.72D-03
 ErrMax= 1.72D-03  0.00D+00 EMaxC= 1.00D-01 BMatC= 6.66D-04 BMatP= 8.03D-03
 IDIUse=3 WtCom= 9.83D-01 WtEn= 1.72D-02
 Coeff-Com: -0.220D-01 0.161D+00 0.861D+00
 Coeff-En:   0.000D+00 0.000D+00 0.100D+01
 Coeff:     -0.216D-01 0.158D+00 0.864D+00
 Gap=     0.160 Goal=   None    Shift=    0.000
 RMSDP=2.67D-04 MaxDP=5.98D-03 DE=-1.36D-01 OVMax= 1.35D-02

 Cycle   4  Pass 0  IDiag  1:
 RMSU=  2.41D-04    CP:  9.65D-01  9.29D-01  9.22D-01
 E= -312.038309706925     Delta-E=       -0.000336276248 Rises=F Damp=F
 DIIS: error= 1.47D-03 at cycle   4 NSaved=   4.
 NSaved= 4 IEnMin= 4 EnMin= -312.038309706925     IErMin= 4 ErrMin= 1.47D-03
 ErrMax= 1.47D-03  0.00D+00 EMaxC= 1.00D-01 BMatC= 3.43D-04 BMatP= 6.66D-04
 IDIUse=3 WtCom= 9.85D-01 WtEn= 1.47D-02
 Coeff-Com: -0.101D-01 0.431D-01 0.453D+00 0.514D+00
 Coeff-En:   0.000D+00 0.000D+00 0.315D+00 0.685D+00
 Coeff:     -0.994D-02 0.425D-01 0.451D+00 0.517D+00
 Gap=     0.160 Goal=   None    Shift=    0.000
 RMSDP=1.36D-04 MaxDP=4.43D-03 DE=-3.36D-04 OVMax= 8.12D-03

 Cycle   5  Pass 0  IDiag  1:
 RMSU=  8.33D-05    CP:  9.65D-01  9.32D-01  9.38D-01  5.61D-01
 E= -312.038607342662     Delta-E=       -0.000297635737 Rises=F Damp=F
 DIIS: error= 5.68D-04 at cycle   5 NSaved=   5.
 NSaved= 5 IEnMin= 5 EnMin= -312.038607342662     IErMin= 5 ErrMin= 5.68D-04
 ErrMax= 5.68D-04  0.00D+00 EMaxC= 1.00D-01 BMatC= 3.96D-05 BMatP= 3.43D-04
 IDIUse=3 WtCom= 9.94D-01 WtEn= 5.68D-03
 Coeff-Com: -0.362D-02 0.995D-02 0.190D+00 0.301D+00 0.503D+00
 Coeff-En:   0.000D+00 0.000D+00 0.000D+00 0.475D-01 0.952D+00
 Coeff:     -0.360D-02 0.989D-02 0.189D+00 0.299D+00 0.505D+00
 Gap=     0.160 Goal=   None    Shift=    0.000
 RMSDP=5.43D-05 MaxDP=1.37D-03 DE=-2.98D-04 OVMax= 3.42D-03

 Cycle   6  Pass 0  IDiag  1:
 RMSU=  3.15D-05    CP:  9.65D-01  9.32D-01  9.37D-01  6.18D-01  4.96D-01
 E= -312.038643705229     Delta-E=       -0.000036362567 Rises=F Damp=F
 DIIS: error= 2.45D-04 at cycle   6 NSaved=   6.
 NSaved= 6 IEnMin= 6 EnMin= -312.038643705229     IErMin= 6 ErrMin= 2.45D-04
 ErrMax= 2.45D-04  0.00D+00 EMaxC= 1.00D-01 BMatC= 4.40D-06 BMatP= 3.96D-05
 IDIUse=3 WtCom= 9.98D-01 WtEn= 2.45D-03
 Coeff-Com: -0.913D-03 0.109D-02 0.599D-01 0.116D+00 0.308D+00 0.516D+00
 Coeff-En:   0.000D+00 0.000D+00 0.000D+00 0.000D+00 0.105D+00 0.895D+00
 Coeff:     -0.911D-03 0.109D-02 0.598D-01 0.116D+00 0.308D+00 0.517D+00
 Gap=     0.160 Goal=   None    Shift=    0.000
 RMSDP=1.86D-05 MaxDP=2.65D-04 DE=-3.64D-05 OVMax= 9.02D-04

 Cycle   7  Pass 0  IDiag  1:
 RMSU=  5.32D-06    CP:  9.65D-01  9.31D-01  9.41D-01  6.10D-01  5.91D-01
                    CP:  5.42D-01
 E= -312.038648820208     Delta-E=       -0.000005114979 Rises=F Damp=F
 DIIS: error= 1.35D-05 at cycle   7 NSaved=   7.
 NSaved= 7 IEnMin= 7 EnMin= -312.038648820208     IErMin= 7 ErrMin= 1.35D-05
 ErrMax= 1.35D-05  0.00D+00 EMaxC= 1.00D-01 BMatC= 2.41D-08 BMatP= 4.40D-06
 IDIUse=1 WtCom= 1.00D+00 WtEn= 0.00D+00
 Coeff-Com: -0.705D-04-0.201D-03 0.827D-02 0.179D-01 0.585D-01 0.130D+00
 Coeff-Com:  0.785D+00
 Coeff:     -0.705D-04-0.201D-03 0.827D-02 0.179D-01 0.585D-01 0.130D+00
 Coeff:      0.785D+00
 Gap=     0.160 Goal=   None    Shift=    0.000
 RMSDP=1.72D-06 MaxDP=2.61D-05 DE=-5.11D-06 OVMax= 8.18D-05

 Initial convergence to 1.0D-05 achieved.  Increase integral accuracy.
 Cycle   8  Pass 1  IDiag  1:
 E= -312.038711019649     Delta-E=       -0.000062199442 Rises=F Damp=F
 DIIS: error= 1.54D-05 at cycle   1 NSaved=   1.
 NSaved= 1 IEnMin= 1 EnMin= -312.038711019649     IErMin= 1 ErrMin= 1.54D-05
 ErrMax= 1.54D-05  0.00D+00 EMaxC= 1.00D-01 BMatC= 3.37D-08 BMatP= 3.37D-08
 IDIUse=1 WtCom= 1.00D+00 WtEn= 0.00D+00
 Coeff-Com:  0.100D+01
 Coeff:      0.100D+01
 Gap=     0.160 Goal=   None    Shift=    0.000
 RMSDP=1.72D-06 MaxDP=2.61D-05 DE=-6.22D-05 OVMax= 4.42D-05

 Cycle   9  Pass 1  IDiag  1:
 RMSU=  6.27D-06    CP:  1.00D+00
 E= -312.038711039636     Delta-E=       -0.000000019986 Rises=F Damp=F
 DIIS: error= 6.42D-06 at cycle   2 NSaved=   2.
 NSaved= 2 IEnMin= 2 EnMin= -312.038711039636     IErMin= 2 ErrMin= 6.42D-06
 ErrMax= 6.42D-06  0.00D+00 EMaxC= 1.00D-01 BMatC= 8.16D-09 BMatP= 3.37D-08
 IDIUse=1 WtCom= 1.00D+00 WtEn= 0.00D+00
 Coeff-Com:  0.260D+00 0.740D+00
 Coeff:      0.260D+00 0.740D+00
 Gap=     0.160 Goal=   None    Shift=    0.000
 RMSDP=1.15D-06 MaxDP=1.98D-05 DE=-2.00D-08 OVMax= 4.75D-05

 Cycle  10  Pass 1  IDiag  1:
 RMSU=  1.15D-06    CP:  1.00D+00  1.00D+00
 E= -312.038711042467     Delta-E=       -0.000000002831 Rises=F Damp=F
 DIIS: error= 6.12D-06 at cycle   3 NSaved=   3.
 NSaved= 3 IEnMin= 3 EnMin= -312.038711042467     IErMin= 3 ErrMin= 6.12D-06
 ErrMax= 6.12D-06  0.00D+00 EMaxC= 1.00D-01 BMatC= 5.22D-09 BMatP= 8.16D-09
 IDIUse=1 WtCom= 1.00D+00 WtEn= 0.00D+00
 Coeff-Com:  0.313D-02 0.443D+00 0.554D+00
 Coeff:      0.313D-02 0.443D+00 0.554D+00
 Gap=     0.160 Goal=   None    Shift=    0.000
 RMSDP=5.87D-07 MaxDP=1.14D-05 DE=-2.83D-09 OVMax= 3.09D-05

 Cycle  11  Pass 1  IDiag  1:
 RMSU=  2.16D-07    CP:  1.00D+00  1.01D+00  5.29D-01
 E= -312.038711047506     Delta-E=       -0.000000005038 Rises=F Damp=F
 DIIS: error= 2.06D-06 at cycle   4 NSaved=   4.
 NSaved= 4 IEnMin= 4 EnMin= -312.038711047506     IErMin= 4 ErrMin= 2.06D-06
 ErrMax= 2.06D-06  0.00D+00 EMaxC= 1.00D-01 BMatC= 4.22D-10 BMatP= 5.22D-09
 IDIUse=1 WtCom= 1.00D+00 WtEn= 0.00D+00
 Coeff-Com: -0.648D-02 0.268D+00 0.362D+00 0.376D+00
 Coeff:     -0.648D-02 0.268D+00 0.362D+00 0.376D+00
 Gap=     0.160 Goal=   None    Shift=    0.000
 RMSDP=1.41D-07 MaxDP=3.91D-06 DE=-5.04D-09 OVMax= 9.19D-06

 Cycle  12  Pass 1  IDiag  1:
 RMSU=  4.78D-08    CP:  1.00D+00  1.01D+00  5.75D-01  4.38D-01
 E= -312.038711047970     Delta-E=       -0.000000000465 Rises=F Damp=F
 DIIS: error= 1.65D-07 at cycle   5 NSaved=   5.
 NSaved= 5 IEnMin= 5 EnMin= -312.038711047970     IErMin= 5 ErrMin= 1.65D-07
 ErrMax= 1.65D-07  0.00D+00 EMaxC= 1.00D-01 BMatC= 2.64D-12 BMatP= 4.22D-10
 IDIUse=1 WtCom= 1.00D+00 WtEn= 0.00D+00
 Coeff-Com: -0.223D-02 0.679D-01 0.930D-01 0.131D+00 0.710D+00
 Coeff:     -0.223D-02 0.679D-01 0.930D-01 0.131D+00 0.710D+00
 Gap=     0.160 Goal=   None    Shift=    0.000
 RMSDP=1.69D-08 MaxDP=3.70D-07 DE=-4.65D-10 OVMax= 6.99D-07

 Cycle  13  Pass 1  IDiag  1:
 RMSU=  1.27D-08    CP:  1.00D+00  1.01D+00  5.72D-01  4.64D-01  8.11D-01
 E= -312.038711047980     Delta-E=       -0.000000000010 Rises=F Damp=F
 DIIS: error= 3.87D-08 at cycle   6 NSaved=   6.
 NSaved= 6 IEnMin= 6 EnMin= -312.038711047980     IErMin= 6 ErrMin= 3.87D-08
 ErrMax= 3.87D-08  0.00D+00 EMaxC= 1.00D-01 BMatC= 2.27D-13 BMatP= 2.64D-12
 IDIUse=1 WtCom= 1.00D+00 WtEn= 0.00D+00
 Coeff-Com: -0.369D-03 0.618D-02 0.865D-02 0.225D-01 0.279D+00 0.684D+00
 Coeff:     -0.369D-03 0.618D-02 0.865D-02 0.225D-01 0.279D+00 0.684D+00
 Gap=     0.160 Goal=   None    Shift=    0.000
 RMSDP=4.27D-09 MaxDP=8.41D-08 DE=-9.78D-12 OVMax= 1.20D-07

 SCF Done:  E(RB3LYP) =  -312.038711048     A.U. after   13 cycles
            NFock= 13  Conv=0.43D-08     -V/T= 2.0103
 KE= 3.088683017286D+02 PE=-1.346793171672D+03 EE= 4.130497398470D+02
 Leave Link  502 at Mon Jun 07 15:17:13 2021, MaxMem=    33554432 cpu:        38.0
 (Enter C:\G09W\l801.exe)
 DoSCS=F DFT=T ScalE2(SS,OS)=  1.000000  1.000000
 ExpMin= 1.61D-01 ExpMax= 3.05D+03 ExpMxC= 4.57D+02 IAcc=3 IRadAn=         5 AccDes= 0.00D+00
 HarFok:  IExCor=  205 AccDes= 0.00D+00 IRadAn=         5 IDoV=-2 UseB2=F ITyADJ=14
 ICtDFT= 12500011 ScaDFX=  1.000000  1.000000  1.000000  1.000000
 Largest valence mixing into a core orbital is  5.38D-05
 Largest core mixing into a valence orbital is  1.10D-05
 Range of M.O.s used for correlation:     9   144
 NBasis=   144 NAE=    30 NBE=    30 NFC=     8 NFV=     0
 NROrb=    136 NOA=    22 NOB=    22 NVA=   114 NVB=   114
 Leave Link  801 at Mon Jun 07 15:17:13 2021, MaxMem=    33554432 cpu:         0.0
 (Enter C:\G09W\l914.exe)
 RHF ground state
 MDV=    33554432 DFT=T DoStab=F Mixed=T DoRPA=T DoScal=F NonHer=T
 Would need an additional           137700000 words for in-memory AO integral storage.
 Making orbital integer symmetry assigments:
    40 initial guesses have been made.
 Convergence on wavefunction:    0.001000000000000
 Davidson Disk Diagonalization:  ConvIn= 1.00D-03 SkipCon=T Conv= 1.00D-03.
 Max sub-space:   200 roots to seek:    40 dimension of matrix:         5016
 Iteration     1 Dimension    40 NMult     0 NNew     40
 CISAX will form    40 AO SS matrices at one time.
 NMat=    40 NSing=    40 JSym2X= 0.
 FoFJK:  IHMeth= 1 ICntrl=       0 DoSepK=F KAlg= 0 I1Cent=   0 FoldK=F
 IRaf=         0 NMat=  80 IRICut=     100 DoRegI=T DoRafI=T ISym2E= 0.
 FoFCou: FMM=F IPFlag=           0 FMFlag=      100000 FMFlg1=           0
         NFxFlg=           0 DoJE=F BraDBF=F KetDBF=F FulRan=T
         wScrn=  0.000000 ICntrl=       0 IOpCl=  0 I1Cent=           0 NGrid=           0
         NMat0=   80 NMatS0=     40 NMatT0=    0 NMatD0=   80 NMtDS0=    0 NMtDT0=    0
 Symmetry not used in FoFCou.
 New state      3 was old state      5
 New state      4 was old state      6
 New state      5 was old state      7
 New state      6 was old state     10
 New state      7 was old state      8
 New state      8 was old state      9
 New state      9 was old state     13
 New state     10 was old state     11
 Excitation Energies [eV] at current iteration:
 Root      1 :     5.323514341004030
 Root      2 :     5.759737784956484
 Root      3 :     6.968175639556982
 Root      4 :     7.109342937187493
 Root      5 :     7.138797134753566
 Root      6 :     7.455192528374142
 Root      7 :     7.757238333666229
 Root      8 :     7.757541161183641
 Root      9 :     7.807723153974651
 Root     10 :     7.924770271197372
 Root     11 :     7.959051442163997
 Root     12 :     8.188016455522655
 Root     13 :     8.515807438875088
 Root     14 :     8.600895545140155
 Root     15 :     8.614668003683823
 Root     16 :     8.646052369880417
 Root     17 :     9.018698156149679
 Root     18 :     9.031744518607734
 Root     19 :     9.109133144484989
 Root     20 :     9.178658908510842
 Root     21 :     9.346490743760386
 Root     22 :     9.355612235772432
 Root     23 :     9.507863667389451
 Root     24 :     9.613620705781786
 Root     25 :     9.642352862507165
 Root     26 :     9.762279005516891
 Root     27 :     9.776479281112490
 Root     28 :     9.815569172504501
 Root     29 :     9.869084086884644
 Root     30 :     9.872083547785964
 Root     31 :     9.976801391288548
 Root     32 :     9.997226766074977
 Root     33 :    10.042863791090480
 Root     34 :    10.341138628619600
 Root     35 :    10.448573050585270
 Root     36 :    10.497068945734430
 Root     37 :    10.518312243022340
 Root     38 :    10.589715065124840
 Root     39 :    10.749918762244080
 Root     40 :    10.966038530917340
 Iteration     2 Dimension    60 NMult    40 NNew     20
 CISAX will form    20 AO SS matrices at one time.
 NMat=    20 NSing=    20 JSym2X= 0.
 Root      1 not converged, maximum delta is    0.051909355377755
 Root      2 not converged, maximum delta is    0.022415619922173
 Root      3 not converged, maximum delta is    0.054902022021422
 Root      4 not converged, maximum delta is    0.028592630008225
 Root      5 not converged, maximum delta is    0.054569029612190
 Root      6 not converged, maximum delta is    0.019702308331423
 New state      7 was old state      9
 Root      7 not converged, maximum delta is    0.114420343664475
 New state      8 was old state      7
 Root      8 not converged, maximum delta is    0.014288493570664
 New state      9 was old state      8
 Root      9 not converged, maximum delta is    0.089212231617659
 New state     10 was old state     12
 Root     10 not converged, maximum delta is    0.055017586385166
 Excitation Energies [eV] at current iteration:
 Root      1 :     4.675413141918032   Change is   -0.648101199085998
 Root      2 :     5.727182543011492   Change is   -0.032555241944993
 Root      3 :     6.948009474429167   Change is   -0.020166165127815
 Root      4 :     7.069354228781969   Change is   -0.039988708405524
 Root      5 :     7.098287858732656   Change is   -0.040509276020911
 Root      6 :     7.432399261388968   Change is   -0.022793266985174
 Root      7 :     7.719849909907749   Change is   -0.087873244066901
 Root      8 :     7.743169162856734   Change is   -0.014069170809495
 Root      9 :     7.743880576422060   Change is   -0.013660584761580
 Root     10 :     7.868109193168160   Change is   -0.319907262354495
 Iteration     3 Dimension    80 NMult    60 NNew     20
 CISAX will form    20 AO SS matrices at one time.
 NMat=    20 NSing=    20 JSym2X= 0.
 Root      1 not converged, maximum delta is    0.007579722401296
 Root      2 not converged, maximum delta is    0.006722164077559
 Root      3 not converged, maximum delta is    0.001799124155270
 Root      4 not converged, maximum delta is    0.005405692305160
 Root      5 not converged, maximum delta is    0.002365818208539
 New state      6 was old state     10
 Root      6 not converged, maximum delta is    0.054916784271633
 New state      7 was old state      6
 Root      7 not converged, maximum delta is    0.002346247476250
 New state      8 was old state      7
 Root      8 not converged, maximum delta is    0.005985485287175
 New state      9 was old state      8
 Root      9 not converged, maximum delta is    0.001925500857217
 New state     10 was old state      9
 Root     10 not converged, maximum delta is    0.001772130469003
 Excitation Energies [eV] at current iteration:
 Root      1 :     4.650399444822913   Change is   -0.025013697095119
 Root      2 :     5.725140096835606   Change is   -0.002042446175886
 Root      3 :     6.947512788747329   Change is   -0.000496685681837
 Root      4 :     7.067340403248978   Change is   -0.002013825532991
 Root      5 :     7.097072378363911   Change is   -0.001215480368745
 Root      6 :     7.115423322424855   Change is   -0.752685870743305
 Root      7 :     7.431732947910783   Change is   -0.000666313478185
 Root      8 :     7.717504648912150   Change is   -0.002345260995600
 Root      9 :     7.742277269355040   Change is   -0.000891893501694
 Root     10 :     7.743220797450494   Change is   -0.000659778971567
 Iteration     4 Dimension   100 NMult    80 NNew     20
 CISAX will form    20 AO SS matrices at one time.
 NMat=    20 NSing=    20 JSym2X= 0.
 Root      1 not converged, maximum delta is    0.001383000674796
 Root      2 has converged.
 Root      3 has converged.
 Root      4 not converged, maximum delta is    0.001330320036220
 New state      5 was old state      6
 Root      5 not converged, maximum delta is    0.017695528697040
 New state      6 was old state      5
 Root      6 has converged.
 Root      7 has converged.
 Root      8 has converged.
 Root      9 has converged.
 Root     10 has converged.
 Excitation Energies [eV] at current iteration:
 Root      1 :     4.649413467119676   Change is   -0.000985977703237
 Root      2 :     5.724972832929923   Change is   -0.000167263905682
 Root      3 :     6.947483020841284   Change is   -0.000029767906045
 Root      4 :     7.067194799761442   Change is   -0.000145603487537
 Root      5 :     7.073329707299833   Change is   -0.042093615125022
 Root      6 :     7.096996976072280   Change is   -0.000075402291630
 Root      7 :     7.431691844424839   Change is   -0.000041103485943
 Root      8 :     7.717379512380408   Change is   -0.000125136531742
 Root      9 :     7.742231801291589   Change is   -0.000045468063451
 Root     10 :     7.743175422473147   Change is   -0.000045374977346
 Iteration     5 Dimension   106 NMult   100 NNew      6
 CISAX will form     6 AO SS matrices at one time.
 NMat=     6 NSing=     6 JSym2X= 0.
 Root      1 has converged.
 Root      2 has converged.
 Root      3 has converged.
 Root      4 has converged.
 Root      5 not converged, maximum delta is    0.002010751156535
 Root      6 has converged.
 Root      7 has converged.
 Root      8 has converged.
 Root      9 has converged.
 Root     10 has converged.
 Excitation Energies [eV] at current iteration:
 Root      1 :     4.649356052991018   Change is   -0.000057414128658
 Root      2 :     5.724969740056074   Change is   -0.000003092873849
 Root      3 :     6.947483020840680   Change is   -0.000000000000604
 Root      4 :     7.067184225744483   Change is   -0.000010574016958
 Root      5 :     7.070488439556408   Change is   -0.002841267743425
 Root      6 :     7.096996976070809   Change is   -0.000000000001471
 Root      7 :     7.431691844424110   Change is   -0.000000000000730
 Root      8 :     7.717379512379151   Change is   -0.000000000001257
 Root      9 :     7.742231801291026   Change is   -0.000000000000563
 Root     10 :     7.743175422472679   Change is   -0.000000000000468
 Iteration     6 Dimension   108 NMult   106 NNew      2
 CISAX will form     2 AO SS matrices at one time.
 NMat=     2 NSing=     2 JSym2X= 0.
 Root      1 has converged.
 Root      2 has converged.
 Root      3 has converged.
 Root      4 has converged.
 Root      5 has converged.
 Root      6 has converged.
 Root      7 has converged.
 Root      8 has converged.
 Root      9 has converged.
 Root     10 has converged.
 Excitation Energies [eV] at current iteration:
 Root      1 :     4.649356052991053   Change is    0.000000000000035
 Root      2 :     5.724969020003531   Change is   -0.000000720052543
 Root      3 :     6.947483020840597   Change is   -0.000000000000083
 Root      4 :     7.067184225744461   Change is   -0.000000000000023
 Root      5 :     7.070238431353882   Change is   -0.000250008202526
 Root      6 :     7.096996976070611   Change is   -0.000000000000198
 Root      7 :     7.431691844423767   Change is   -0.000000000000343
 Root      8 :     7.717379512378597   Change is   -0.000000000000554
 Root      9 :     7.742231801290963   Change is   -0.000000000000063
 Root     10 :     7.743175422472531   Change is   -0.000000000000148
 Convergence achieved on expansion vectors.
 ***********************************************************************
 Excited states from <AA,BB:AA,BB> singles matrix:
 ***********************************************************************
 
 1PDM for each excited state written to RWF  633
 Ground to excited state transition densities written to RWF  633
 Ground to excited state transition electric dipole moments (Au):
       state          X           Y           Z        Dip. S.      Osc.
         1        -3.3755      0.4285      0.0000     11.5777      1.3188
         2         0.0000      0.0000      0.0000      0.0000      0.0000
         3         0.0000      0.0000      0.0000      0.0000      0.0000
         4        -0.0177     -0.0427      0.0000      0.0021      0.0004
         5         0.0000      0.0000      0.0000      0.0000      0.0000
         6         0.0000      0.0000      0.0000      0.0000      0.0000
         7         0.0000      0.0000      0.0005      0.0000      0.0000
         8         0.0000      0.0000      0.0000      0.0000      0.0000
         9         0.0000      0.0000     -0.1894      0.0359      0.0068
        10         0.0000      0.0000      0.0000      0.0000      0.0000
 Ground to excited state transition velocity dipole moments (Au):
       state          X           Y           Z        Dip. S.      Osc.
         1         0.5557     -0.0755      0.0000      0.3145      1.2271
         2         0.0000      0.0000      0.0000      0.0000      0.0000
         3         0.0000      0.0000      0.0000      0.0000      0.0000
         4         0.0020      0.0112      0.0000      0.0001      0.0003
         5         0.0000      0.0000      0.0000      0.0000      0.0000
         6         0.0000      0.0000      0.0000      0.0000      0.0000
         7         0.0000      0.0000      0.0010      0.0000      0.0000
         8         0.0000      0.0000      0.0000      0.0000      0.0000
         9         0.0000      0.0000      0.0549      0.0030      0.0071
        10         0.0000      0.0000      0.0000      0.0000      0.0000
 Ground to excited state transition magnetic dipole moments (Au):
       state          X           Y           Z
         1         0.0000      0.0000      0.0000
         2         0.0000      0.0000      0.1609
         3        -0.0564      0.1018      0.0000
         4         0.0000      0.0000      0.0000
         5         0.0000      0.0000      0.4510
         6         0.1353     -0.2963      0.0000
         7         0.0000      0.0000      0.0000
         8         0.1785      0.4521      0.0000
         9         0.0000      0.0000      0.0000
        10         0.2590     -0.9165      0.0000
 Ground to excited state transition velocity quadrupole moments (Au):
       state          XX          YY          ZZ          XY          XZ          YZ
         1         0.0000      0.0000      0.0000      0.0000      0.0000      0.0000
         2         0.5653     -0.0030     -0.0067     -0.0234      0.0000      0.0000
         3         0.0000      0.0000      0.0000      0.0000     -0.0892     -0.0181
         4         0.0000      0.0000      0.0000      0.0000      0.0000      0.0000
         5        -4.8530      0.0632     -0.0685      0.5763      0.0000      0.0000
         6        -0.0001      0.0000      0.0000      0.0000      0.1156      0.0095
         7         0.0000      0.0000      0.0000      0.0000      0.0000      0.0000
         8         0.0000      0.0000      0.0000      0.0000     -0.1954      0.0184
         9         0.0000      0.0000      0.0000      0.0000      0.0000      0.0000
        10         0.0000      0.0000      0.0000      0.0000      0.7158     -0.0094
 <0|del|b> * <b|rxdel|0> + <0|del|b> * <b|delr+rdel|0>
 Rotatory Strengths (R) in cgs (10**-40 erg-esu-cm/Gauss)
       state          XX          YY          ZZ    R(velocity)    E-M Angle
         1         0.0016      0.0007      0.0013      0.0012       90.00
         2         0.0000      0.0001      0.0000      0.0000       90.00
         3        -0.0001      0.0001      0.0000      0.0000       90.00
         4        -0.0002      0.0000     -0.0001     -0.0001       90.00
         5        -0.0026      0.0003      0.0000     -0.0008       90.00
         6         0.0001     -0.0002     -0.0001     -0.0001       90.00
         7         0.0000      0.0000      0.0000      0.0000       90.00
         8         0.0000      0.0002      0.0002      0.0001       90.00
         9         0.0002      0.0000      0.0000      0.0001       90.00
        10        -0.0006      0.0000     -0.0001     -0.0002       90.00
 1/2[<0|r|b>*<b|rxdel|0> + (<0|rxdel|b>*<b|r|0>)*]
 Rotatory Strengths (R) in cgs (10**-40 erg-esu-cm/Gauss)
       state          XX          YY          ZZ     R(length)
         1         0.0013      0.0023      0.0000      0.0012
         2         0.0000      0.0000      0.0001      0.0000
         3         0.0001     -0.0001      0.0000      0.0000
         4         0.0000     -0.0003      0.0000     -0.0001
         5         0.0000      0.0000     -0.0026     -0.0009
         6        -0.0005      0.0001      0.0000     -0.0001
         7         0.0000      0.0000      0.0000      0.0000
         8         0.0004     -0.0003      0.0000      0.0000
         9         0.0000      0.0000      0.0002      0.0001
        10        -0.0001     -0.0005      0.0000     -0.0002
  1/2[<0|del|b>*<b|r|0> + (<0|r|b>*<b|del|0>)*] (Au)
       state          X           Y           Z        Dip. S.   Osc.(frdel)
         1        -1.8757     -0.0324      0.0000      1.9081      1.2720
         2         0.0000      0.0000      0.0000      0.0000      0.0000
         3         0.0000      0.0000      0.0000      0.0000      0.0000
         4         0.0000     -0.0005      0.0000      0.0005      0.0003
         5         0.0000      0.0000      0.0000      0.0000      0.0000
         6         0.0000      0.0000      0.0000      0.0000      0.0000
         7         0.0000      0.0000      0.0000      0.0000      0.0000
         8         0.0000      0.0000      0.0000      0.0000      0.0000
         9         0.0000      0.0000     -0.0104      0.0104      0.0069
        10         0.0000      0.0000      0.0000      0.0000      0.0000

 Excitation energies and oscillator strengths:
 
 Excited state symmetry could not be determined.
 Excited State   1:      Singlet-?Sym    4.6494 eV  266.67 nm  f=1.3188  <S**2>=0.000
      30 -> 31         0.71107
      30 <- 31        -0.11431
 This state for optimization and/or second-order correction.
 Total Energy, E(TD-HF/TD-KS) =  -311.867850350    
 Copying the excited state density for this state as the 1-particle RhoCI density.
 
 Excited state symmetry could not be determined.
 Excited State   2:      Singlet-?Sym    5.7250 eV  216.57 nm  f=0.0000  <S**2>=0.000
      29 -> 31         0.55847
      30 -> 32         0.43081
 
 Excited state symmetry could not be determined.
 Excited State   3:      Singlet-?Sym    6.9475 eV  178.46 nm  f=0.0000  <S**2>=0.000
      27 -> 31        -0.12085
      30 -> 33         0.69260
 
 Excited state symmetry could not be determined.
 Excited State   4:      Singlet-?Sym    7.0672 eV  175.44 nm  f=0.0004  <S**2>=0.000
      28 -> 31         0.53370
      30 -> 34        -0.46243
 
 Excited state symmetry could not be determined.
 Excited State   5:      Singlet-?Sym    7.0702 eV  175.36 nm  f=0.0000  <S**2>=0.000
      29 -> 31        -0.42714
      30 -> 32         0.55362
 
 Excited state symmetry could not be determined.
 Excited State   6:      Singlet-?Sym    7.0970 eV  174.70 nm  f=0.0000  <S**2>=0.000
      27 -> 31         0.69041
      30 -> 33         0.12345
 
 Excited state symmetry could not be determined.
 Excited State   7:      Singlet-?Sym    7.4317 eV  166.83 nm  f=0.0000  <S**2>=0.000
      26 -> 31         0.69346
 
 Excited state symmetry could not be determined.
 Excited State   8:      Singlet-?Sym    7.7174 eV  160.66 nm  f=0.0000  <S**2>=0.000
      24 -> 31         0.40589
      25 -> 31         0.56039
 
 Excited state symmetry could not be determined.
 Excited State   9:      Singlet-?Sym    7.7422 eV  160.14 nm  f=0.0068  <S**2>=0.000
      30 -> 35         0.69762
 
 Excited state symmetry could not be determined.
 Excited State  10:      Singlet-?Sym    7.7432 eV  160.12 nm  f=0.0000  <S**2>=0.000
      30 -> 36         0.69118
 SavETr:  write IOETrn=   770 NScale= 10 NData=  16 NLR=1 NState=   10 LETran=     190.
 Leave Link  914 at Mon Jun 07 15:21:53 2021, MaxMem=    33554432 cpu:       279.0
 (Enter C:\G09W\l601.exe)
 Copying SCF densities to generalized density rwf, IOpCl= 0 IROHF=0.

 **********************************************************************

            Population analysis using the SCF density.

 **********************************************************************

 Alpha  occ. eigenvalues --  -10.18621 -10.18621 -10.18385 -10.18311 -10.18162
 Alpha  occ. eigenvalues --  -10.18161 -10.18156 -10.18156  -0.81370  -0.78957
 Alpha  occ. eigenvalues --   -0.75237  -0.70184  -0.65603  -0.57566  -0.55229
 Alpha  occ. eigenvalues --   -0.54016  -0.46847  -0.45675  -0.42577  -0.40937
 Alpha  occ. eigenvalues --   -0.40891  -0.40364  -0.38005  -0.36674  -0.35893
 Alpha  occ. eigenvalues --   -0.34701  -0.33650  -0.32480  -0.26888  -0.19315
 Alpha virt. eigenvalues --   -0.03280   0.05711   0.10016   0.11019   0.11918
 Alpha virt. eigenvalues --    0.11944   0.13210   0.15772   0.15846   0.16940
 Alpha virt. eigenvalues --    0.17220   0.17427   0.17493   0.19703   0.19960
 Alpha virt. eigenvalues --    0.24602   0.27577   0.34803   0.35807   0.37307
 Alpha virt. eigenvalues --    0.42731   0.43032   0.48388   0.49931   0.52657
 Alpha virt. eigenvalues --    0.53817   0.57685   0.57980   0.58039   0.58897
 Alpha virt. eigenvalues --    0.59742   0.61255   0.64000   0.64696   0.65154
 Alpha virt. eigenvalues --    0.65857   0.72924   0.73232   0.73564   0.74067
 Alpha virt. eigenvalues --    0.77542   0.78113   0.83863   0.86739   0.87521
 Alpha virt. eigenvalues --    0.87522   0.88033   0.88134   0.90205   0.90322
 Alpha virt. eigenvalues --    0.91035   0.92415   0.95121   0.95233   0.98684
 Alpha virt. eigenvalues --    1.00243   1.05960   1.08528   1.15156   1.17261
 Alpha virt. eigenvalues --    1.24165   1.27818   1.33488   1.34669   1.34729
 Alpha virt. eigenvalues --    1.37895   1.39250   1.42283   1.44636   1.48452
 Alpha virt. eigenvalues --    1.54391   1.63934   1.72193   1.76655   1.78330
 Alpha virt. eigenvalues --    1.83732   1.85406   1.89578   1.89780   1.92895
 Alpha virt. eigenvalues --    1.96066   1.97652   2.01257   2.07388   2.08999
 Alpha virt. eigenvalues --    2.16442   2.18227   2.20580   2.21253   2.30773
 Alpha virt. eigenvalues --    2.30862   2.32190   2.35602   2.35920   2.37994
 Alpha virt. eigenvalues --    2.45415   2.50263   2.50806   2.54213   2.63310
 Alpha virt. eigenvalues --    2.78371   2.85729   2.91700   2.93689   3.07371
 Alpha virt. eigenvalues --    3.08461   4.09820   4.11276   4.14490   4.18719
 Alpha virt. eigenvalues --    4.28654   4.34659   4.43218   4.53349
     Molecular Orbital Coefficients:
                           1         2         3         4         5
                           O         O         O         O         O
     Eigenvalues --   -10.18621 -10.18621 -10.18385 -10.18311 -10.18162
   1 1   C  1S          0.69897   0.69903  -0.00934  -0.01108  -0.05554
   2        2S          0.03473   0.03473  -0.00056  -0.00062  -0.00312
   3        2PX         0.00010   0.00008   0.00005   0.00001   0.00024
   4        2PY         0.00007   0.00008   0.00001  -0.00001  -0.00014
   5        2PZ         0.00000   0.00000   0.00000   0.00000   0.00000
   6        3S         -0.01084  -0.01078   0.00054   0.00059   0.00451
   7        3PX         0.00024   0.00024  -0.00063   0.00022  -0.00240
   8        3PY        -0.00149  -0.00160   0.00001   0.00025   0.00064
   9        3PZ         0.00000   0.00000   0.00000   0.00000   0.00000
  10        4XX        -0.00644  -0.00643   0.00012   0.00011   0.00038
  11        4YY        -0.00655  -0.00655   0.00010   0.00012   0.00034
  12        4ZZ        -0.00672  -0.00671   0.00006   0.00008   0.00046
  13        4XY        -0.00009  -0.00008  -0.00001  -0.00001   0.00007
  14        4XZ         0.00000   0.00000   0.00000   0.00000   0.00000
  15        4YZ         0.00000   0.00000   0.00000   0.00000   0.00000
  16 2   H  1S         -0.00026  -0.00026  -0.00004   0.00003  -0.00005
  17        2S          0.00119   0.00112  -0.00003  -0.00009  -0.00027
  18 3   C  1S          0.06144   0.06147   0.05697   0.08703   0.68085
  19        2S          0.00261   0.00268   0.00258   0.00415   0.03404
  20        2PX        -0.00026  -0.00026   0.00020   0.00020  -0.00003
  21        2PY         0.00015   0.00014   0.00009   0.00012  -0.00014
  22        2PZ         0.00000   0.00000   0.00000   0.00000   0.00000
  23        3S          0.00375   0.00293   0.00239   0.00226  -0.01207
  24        3PX         0.00178   0.00226  -0.00174  -0.00175  -0.00046
  25        3PY        -0.00066  -0.00029   0.00003  -0.00024   0.00188
  26        3PZ         0.00000   0.00000   0.00000   0.00000   0.00000
  27        4XX        -0.00074  -0.00076  -0.00078  -0.00115  -0.00619
  28        4YY        -0.00079  -0.00078  -0.00073  -0.00105  -0.00636
  29        4ZZ        -0.00071  -0.00069  -0.00066  -0.00094  -0.00654
  30        4XY         0.00003   0.00001  -0.00012  -0.00014  -0.00005
  31        4XZ         0.00000   0.00000   0.00000   0.00000   0.00000
  32        4YZ         0.00000   0.00000   0.00000   0.00000   0.00000
  33 4   H  1S         -0.00011  -0.00010  -0.00011  -0.00011  -0.00025
  34        2S         -0.00004  -0.00018  -0.00027   0.00000   0.00121
  35 5   C  1S          0.00429   0.00341   0.69944   0.69665  -0.05653
  36        2S          0.00013   0.00012   0.03449   0.03516  -0.00304
  37        2PX         0.00001  -0.00005   0.00028  -0.00022  -0.00022
  38        2PY         0.00002   0.00001  -0.00004   0.00026  -0.00009
  39        2PZ         0.00000   0.00000   0.00000   0.00000   0.00000
  40        3S          0.00013   0.00021  -0.00707  -0.01559   0.00397
  41        3PX        -0.00035   0.00077  -0.00168   0.00216   0.00175
  42        3PY        -0.00024   0.00000  -0.00113  -0.00229   0.00027
  43        3PZ         0.00000   0.00000   0.00000   0.00000   0.00000
  44        4XX        -0.00001  -0.00001  -0.00663  -0.00624   0.00026
  45        4YY        -0.00005  -0.00003  -0.00679  -0.00634   0.00037
  46        4ZZ        -0.00007  -0.00005  -0.00685  -0.00662   0.00044
  47        4XY         0.00000   0.00001  -0.00002  -0.00012  -0.00014
  48        4XZ         0.00000   0.00000   0.00000   0.00000   0.00000
  49        4YZ         0.00000   0.00000   0.00000   0.00000   0.00000
  50 6   H  1S         -0.00005   0.00002  -0.00033  -0.00018  -0.00005
  51        2S         -0.00011  -0.00014   0.00088   0.00139  -0.00045
  52 7   C  1S          0.00429  -0.00341   0.69944  -0.69665  -0.05653
  53        2S          0.00013  -0.00012   0.03449  -0.03516  -0.00304
  54        2PX        -0.00001  -0.00005  -0.00028  -0.00022   0.00022
  55        2PY        -0.00002   0.00001   0.00004   0.00026   0.00009
  56        2PZ         0.00000   0.00000   0.00000   0.00000   0.00000
  57        3S          0.00013  -0.00021  -0.00707   0.01559   0.00397
  58        3PX         0.00035   0.00077   0.00168   0.00216  -0.00175
  59        3PY         0.00024   0.00000   0.00113  -0.00229  -0.00027
  60        3PZ         0.00000   0.00000   0.00000   0.00000   0.00000
  61        4XX        -0.00001   0.00001  -0.00663   0.00624   0.00026
  62        4YY        -0.00005   0.00003  -0.00679   0.00634   0.00037
  63        4ZZ        -0.00007   0.00005  -0.00685   0.00662   0.00044
  64        4XY         0.00000  -0.00001  -0.00002   0.00012  -0.00014
  65        4XZ         0.00000   0.00000   0.00000   0.00000   0.00000
  66        4YZ         0.00000   0.00000   0.00000   0.00000   0.00000
  67 8   H  1S         -0.00005  -0.00002  -0.00033   0.00018  -0.00005
  68        2S         -0.00011   0.00014   0.00088  -0.00139  -0.00045
  69 9   C  1S          0.06145  -0.06147   0.05697  -0.08703   0.68085
  70        2S          0.00261  -0.00268   0.00258  -0.00415   0.03404
  71        2PX         0.00026  -0.00026  -0.00020   0.00020   0.00003
  72        2PY        -0.00015   0.00014  -0.00009   0.00012   0.00014
  73        2PZ         0.00000   0.00000   0.00000   0.00000   0.00000
  74        3S          0.00375  -0.00293   0.00239  -0.00226  -0.01207
  75        3PX        -0.00178   0.00226   0.00174  -0.00175   0.00046
  76        3PY         0.00066  -0.00029  -0.00003  -0.00024  -0.00188
  77        3PZ         0.00000   0.00000   0.00000   0.00000   0.00000
  78        4XX        -0.00074   0.00076  -0.00078   0.00115  -0.00619
  79        4YY        -0.00079   0.00078  -0.00073   0.00105  -0.00636
  80        4ZZ        -0.00071   0.00069  -0.00066   0.00094  -0.00654
  81        4XY         0.00003  -0.00001  -0.00012   0.00014  -0.00005
  82        4XZ         0.00000   0.00000   0.00000   0.00000   0.00000
  83        4YZ         0.00000   0.00000   0.00000   0.00000   0.00000
  84 10  H  1S         -0.00011   0.00010  -0.00011   0.00011  -0.00025
  85        2S         -0.00004   0.00018  -0.00027   0.00000   0.00121
  86 11  C  1S          0.69903  -0.69898  -0.00934   0.01108  -0.05554
  87        2S          0.03473  -0.03473  -0.00056   0.00062  -0.00312
  88        2PX        -0.00010   0.00008  -0.00005   0.00001  -0.00024
  89        2PY        -0.00007   0.00008  -0.00001  -0.00001   0.00014
  90        2PZ         0.00000   0.00000   0.00000   0.00000   0.00000
  91        3S         -0.01084   0.01078   0.00054  -0.00059   0.00451
  92        3PX        -0.00024   0.00024   0.00063   0.00022   0.00240
  93        3PY         0.00149  -0.00160  -0.00001   0.00025  -0.00064
  94        3PZ         0.00000   0.00000   0.00000   0.00000   0.00000
  95        4XX        -0.00644   0.00643   0.00012  -0.00011   0.00038
  96        4YY        -0.00655   0.00655   0.00010  -0.00012   0.00034
  97        4ZZ        -0.00672   0.00671   0.00006  -0.00008   0.00046
  98        4XY        -0.00009   0.00008  -0.00001   0.00001   0.00007
  99        4XZ         0.00000   0.00000   0.00000   0.00000   0.00000
 100        4YZ         0.00000   0.00000   0.00000   0.00000   0.00000
 101 12  H  1S         -0.00026   0.00026  -0.00004  -0.00003  -0.00005
 102        2S          0.00119  -0.00112  -0.00003   0.00009  -0.00027
 103 13  C  1S          0.01967   0.01972  -0.00069  -0.00099  -0.15179
 104        2S          0.00085   0.00087  -0.00010  -0.00006  -0.00770
 105        2PX         0.00020   0.00019   0.00000   0.00002   0.00000
 106        2PY         0.00004   0.00004   0.00000   0.00001   0.00002
 107        2PZ         0.00000   0.00000   0.00000   0.00000   0.00000
 108        3S          0.00232   0.00226   0.00045  -0.00022   0.00270
 109        3PX        -0.00151  -0.00147  -0.00023   0.00002  -0.00001
 110        3PY         0.00004   0.00005  -0.00012   0.00007  -0.00031
 111        3PZ         0.00000   0.00000   0.00000   0.00000   0.00000
 112        4XX        -0.00044  -0.00044   0.00002   0.00002   0.00144
 113        4YY        -0.00034  -0.00034  -0.00001   0.00001   0.00142
 114        4ZZ        -0.00023  -0.00022  -0.00002  -0.00001   0.00138
 115        4XY        -0.00016  -0.00016   0.00000  -0.00001   0.00003
 116        4XZ         0.00000   0.00000   0.00000   0.00000   0.00000
 117        4YZ         0.00000   0.00000   0.00000   0.00000   0.00000
 118 14  H  1S         -0.00011  -0.00011  -0.00001   0.00001   0.00000
 119        2S          0.00038   0.00038  -0.00001   0.00001  -0.00047
 120 15  H  1S         -0.00010  -0.00010  -0.00003  -0.00002   0.00003
 121        2S         -0.00028  -0.00029   0.00010   0.00006  -0.00035
 122 16  H  1S         -0.00011  -0.00011  -0.00001   0.00001   0.00000
 123        2S          0.00038   0.00038  -0.00001   0.00001  -0.00047
 124 17  C  1S          0.01967  -0.01972  -0.00069   0.00099  -0.15179
 125        2S          0.00085  -0.00087  -0.00010   0.00006  -0.00770
 126        2PX        -0.00020   0.00019   0.00000   0.00002   0.00000
 127        2PY        -0.00004   0.00004   0.00000   0.00001  -0.00002
 128        2PZ         0.00000   0.00000   0.00000   0.00000   0.00000
 129        3S          0.00232  -0.00226   0.00045   0.00022   0.00270
 130        3PX         0.00151  -0.00147   0.00023   0.00002   0.00001
 131        3PY        -0.00004   0.00005   0.00012   0.00007   0.00031
 132        3PZ         0.00000   0.00000   0.00000   0.00000   0.00000
 133        4XX        -0.00044   0.00044   0.00002  -0.00002   0.00144
 134        4YY        -0.00034   0.00034  -0.00001  -0.00001   0.00142
 135        4ZZ        -0.00023   0.00022  -0.00002   0.00001   0.00138
 136        4XY        -0.00016   0.00016   0.00000   0.00001   0.00003
 137        4XZ         0.00000   0.00000   0.00000   0.00000   0.00000
 138        4YZ         0.00000   0.00000   0.00000   0.00000   0.00000
 139 18  H  1S         -0.00011   0.00011  -0.00001  -0.00001   0.00000
 140        2S          0.00038  -0.00038  -0.00001  -0.00001  -0.00047
 141 19  H  1S         -0.00011   0.00011  -0.00001  -0.00001   0.00000
 142        2S          0.00038  -0.00038  -0.00001  -0.00001  -0.00047
 143 20  H  1S         -0.00010   0.00010  -0.00003   0.00002   0.00003
 144        2S         -0.00028   0.00029   0.00010  -0.00006  -0.00035
                           6         7         8         9        10
                           O         O         O         O         O
     Eigenvalues --   -10.18161 -10.18156 -10.18156  -0.81370  -0.78957
   1 1   C  1S         -0.05422  -0.03255  -0.03412  -0.07040  -0.10427
   2        2S         -0.00301  -0.00187  -0.00192   0.13525   0.20191
   3        2PX         0.00027  -0.00011  -0.00010  -0.03296  -0.02256
   4        2PY        -0.00012  -0.00013  -0.00014   0.02421   0.03501
   5        2PZ         0.00000   0.00000   0.00000   0.00000   0.00000
   6        3S          0.00348   0.00461   0.00427   0.10125   0.14204
   7        3PX        -0.00229   0.00124   0.00144  -0.00945  -0.00489
   8        3PY         0.00014   0.00094   0.00077   0.00188  -0.00527
   9        3PZ         0.00000   0.00000   0.00000   0.00000   0.00000
  10        4XX         0.00037  -0.00001  -0.00001   0.00356   0.00428
  11        4YY         0.00032   0.00015   0.00016   0.00007   0.00055
  12        4ZZ         0.00046   0.00018   0.00021  -0.00750  -0.01075
  13        4XY         0.00009  -0.00007  -0.00005  -0.00202  -0.00119
  14        4XZ         0.00000   0.00000   0.00000   0.00000   0.00000
  15        4YZ         0.00000   0.00000   0.00000   0.00000   0.00000
  16 2   H  1S         -0.00006  -0.00009  -0.00008   0.03423   0.05190
  17        2S         -0.00040  -0.00002  -0.00007   0.00533   0.00573
  18 3   C  1S          0.67319   0.14910   0.16817  -0.09387  -0.09421
  19        2S          0.03369   0.00741   0.00838   0.18187   0.18317
  20        2PX        -0.00007  -0.00004  -0.00008  -0.01098   0.03966
  21        2PY        -0.00013  -0.00009  -0.00009  -0.03121  -0.03394
  22        2PZ         0.00000   0.00000   0.00000   0.00000   0.00000
  23        3S         -0.01187  -0.00311  -0.00316   0.11012   0.11994
  24        3PX         0.00059   0.00023   0.00067  -0.01100   0.00590
  25        3PY         0.00154   0.00062   0.00057   0.01036   0.01186
  26        3PZ         0.00000   0.00000   0.00000   0.00000   0.00000
  27        4XX        -0.00610  -0.00138  -0.00153   0.00526   0.00296
  28        4YY        -0.00627  -0.00135  -0.00152   0.00031   0.00056
  29        4ZZ        -0.00645  -0.00149  -0.00165  -0.01003  -0.00972
  30        4XY        -0.00005  -0.00006  -0.00008   0.00065  -0.00261
  31        4XZ         0.00000   0.00000   0.00000   0.00000   0.00000
  32        4YZ         0.00000   0.00000   0.00000   0.00000   0.00000
  33 4   H  1S         -0.00018  -0.00009  -0.00007   0.04524   0.04602
  34        2S          0.00118   0.00015   0.00012   0.00453   0.00247
  35 5   C  1S         -0.08546  -0.01197  -0.02065  -0.10890  -0.03293
  36        2S         -0.00452  -0.00072  -0.00111   0.21055   0.06415
  37        2PX        -0.00018  -0.00007  -0.00007  -0.01385   0.05967
  38        2PY        -0.00019  -0.00002  -0.00004   0.03720   0.00824
  39        2PZ         0.00000   0.00000   0.00000   0.00000   0.00000
  40        3S          0.00615   0.00153   0.00117   0.14377   0.03338
  41        3PX         0.00101   0.00099   0.00136   0.00384   0.02541
  42        3PY         0.00097   0.00031  -0.00010  -0.00641  -0.01051
  43        3PZ         0.00000   0.00000   0.00000   0.00000   0.00000
  44        4XX         0.00043   0.00007   0.00011   0.00600   0.00265
  45        4YY         0.00052   0.00007   0.00011   0.00041   0.00022
  46        4ZZ         0.00072   0.00005   0.00016  -0.01167  -0.00354
  47        4XY        -0.00010  -0.00001   0.00003  -0.00091   0.00375
  48        4XZ         0.00000   0.00000   0.00000   0.00000   0.00000
  49        4YZ         0.00000   0.00000   0.00000   0.00000   0.00000
  50 6   H  1S         -0.00004  -0.00005  -0.00004   0.05258   0.01646
  51        2S         -0.00027   0.00007  -0.00014   0.00538  -0.00026
  52 7   C  1S          0.08546  -0.01197   0.02065  -0.10890   0.03293
  53        2S          0.00452  -0.00072   0.00111   0.21055  -0.06415
  54        2PX        -0.00018   0.00007  -0.00007   0.01385   0.05967
  55        2PY        -0.00019   0.00002  -0.00004  -0.03720   0.00824
  56        2PZ         0.00000   0.00000   0.00000   0.00000   0.00000
  57        3S         -0.00615   0.00153  -0.00117   0.14377  -0.03338
  58        3PX         0.00101  -0.00099   0.00136  -0.00384   0.02541
  59        3PY         0.00097  -0.00031  -0.00010   0.00641  -0.01051
  60        3PZ         0.00000   0.00000   0.00000   0.00000   0.00000
  61        4XX        -0.00043   0.00007  -0.00011   0.00600  -0.00265
  62        4YY        -0.00052   0.00007  -0.00011   0.00041  -0.00022
  63        4ZZ        -0.00072   0.00005  -0.00016  -0.01167   0.00354
  64        4XY         0.00010  -0.00001  -0.00003  -0.00091  -0.00375
  65        4XZ         0.00000   0.00000   0.00000   0.00000   0.00000
  66        4YZ         0.00000   0.00000   0.00000   0.00000   0.00000
  67 8   H  1S          0.00004  -0.00005   0.00004   0.05258  -0.01646
  68        2S          0.00027   0.00007   0.00014   0.00538   0.00026
  69 9   C  1S         -0.67319   0.14910  -0.16817  -0.09387   0.09421
  70        2S         -0.03369   0.00741  -0.00837   0.18187  -0.18317
  71        2PX        -0.00007   0.00004  -0.00008   0.01098   0.03966
  72        2PY        -0.00013   0.00009  -0.00009   0.03121  -0.03394
  73        2PZ         0.00000   0.00000   0.00000   0.00000   0.00000
  74        3S          0.01187  -0.00311   0.00316   0.11012  -0.11994
  75        3PX         0.00059  -0.00023   0.00067   0.01100   0.00590
  76        3PY         0.00154  -0.00062   0.00057  -0.01036   0.01186
  77        3PZ         0.00000   0.00000   0.00000   0.00000   0.00000
  78        4XX         0.00610  -0.00138   0.00153   0.00526  -0.00296
  79        4YY         0.00627  -0.00135   0.00152   0.00031  -0.00056
  80        4ZZ         0.00645  -0.00149   0.00165  -0.01003   0.00972
  81        4XY         0.00005  -0.00006   0.00008   0.00065   0.00261
  82        4XZ         0.00000   0.00000   0.00000   0.00000   0.00000
  83        4YZ         0.00000   0.00000   0.00000   0.00000   0.00000
  84 10  H  1S          0.00018  -0.00009   0.00007   0.04524  -0.04602
  85        2S         -0.00118   0.00015  -0.00012   0.00453  -0.00247
  86 11  C  1S          0.05422  -0.03255   0.03412  -0.07040   0.10427
  87        2S          0.00301  -0.00187   0.00192   0.13525  -0.20191
  88        2PX         0.00027   0.00011  -0.00010   0.03296  -0.02256
  89        2PY        -0.00012   0.00013  -0.00014  -0.02421   0.03501
  90        2PZ         0.00000   0.00000   0.00000   0.00000   0.00000
  91        3S         -0.00348   0.00461  -0.00427   0.10125  -0.14204
  92        3PX        -0.00229  -0.00124   0.00144   0.00945  -0.00489
  93        3PY         0.00014  -0.00094   0.00077  -0.00188  -0.00527
  94        3PZ         0.00000   0.00000   0.00000   0.00000   0.00000
  95        4XX        -0.00037  -0.00001   0.00001   0.00356  -0.00428
  96        4YY        -0.00032   0.00015  -0.00016   0.00007  -0.00055
  97        4ZZ        -0.00046   0.00018  -0.00021  -0.00750   0.01075
  98        4XY        -0.00009  -0.00007   0.00005  -0.00202   0.00119
  99        4XZ         0.00000   0.00000   0.00000   0.00000   0.00000
 100        4YZ         0.00000   0.00000   0.00000   0.00000   0.00000
 101 12  H  1S          0.00006  -0.00009   0.00008   0.03423  -0.05190
 102        2S          0.00040  -0.00002   0.00007   0.00533  -0.00573
 103 13  C  1S         -0.17168   0.68521   0.68050  -0.03643  -0.06989
 104        2S         -0.00871   0.03451   0.03429   0.06844   0.13200
 105        2PX        -0.00002  -0.00002  -0.00002  -0.02387  -0.03761
 106        2PY         0.00001  -0.00004  -0.00004  -0.00679  -0.01212
 107        2PZ         0.00000   0.00000   0.00000   0.00000   0.00000
 108        3S          0.00326  -0.01217  -0.01214   0.05628   0.11339
 109        3PX        -0.00013   0.00077   0.00078  -0.00400  -0.00751
 110        3PY        -0.00027   0.00030   0.00036  -0.00210  -0.00160
 111        3PZ         0.00000   0.00000   0.00000   0.00000   0.00000
 112        4XX         0.00164  -0.00633  -0.00628   0.00258   0.00383
 113        4YY         0.00160  -0.00629  -0.00624  -0.00033  -0.00049
 114        4ZZ         0.00156  -0.00630  -0.00625  -0.00126  -0.00187
 115        4XY         0.00003  -0.00001  -0.00001   0.00131   0.00181
 116        4XZ         0.00000   0.00000   0.00000   0.00000   0.00000
 117        4YZ         0.00000   0.00000   0.00000   0.00000   0.00000
 118 14  H  1S          0.00000  -0.00002  -0.00001   0.01757   0.03608
 119        2S         -0.00051   0.00186   0.00186   0.00166   0.00508
 120 15  H  1S          0.00002  -0.00001  -0.00001   0.01957   0.03847
 121        2S         -0.00047   0.00188   0.00184   0.00467   0.00773
 122 16  H  1S          0.00000  -0.00002  -0.00001   0.01757   0.03608
 123        2S         -0.00051   0.00186   0.00186   0.00166   0.00508
 124 17  C  1S          0.17168   0.68521  -0.68050  -0.03643   0.06989
 125        2S          0.00871   0.03451  -0.03429   0.06844  -0.13200
 126        2PX        -0.00002   0.00002  -0.00002   0.02387  -0.03761
 127        2PY         0.00001   0.00004  -0.00004   0.00679  -0.01212
 128        2PZ         0.00000   0.00000   0.00000   0.00000   0.00000
 129        3S         -0.00326  -0.01217   0.01214   0.05628  -0.11339
 130        3PX        -0.00013  -0.00077   0.00078   0.00400  -0.00751
 131        3PY        -0.00027  -0.00030   0.00036   0.00210  -0.00160
 132        3PZ         0.00000   0.00000   0.00000   0.00000   0.00000
 133        4XX        -0.00164  -0.00633   0.00628   0.00258  -0.00383
 134        4YY        -0.00160  -0.00629   0.00624  -0.00033   0.00049
 135        4ZZ        -0.00156  -0.00630   0.00625  -0.00126   0.00187
 136        4XY        -0.00003  -0.00001   0.00001   0.00131  -0.00181
 137        4XZ         0.00000   0.00000   0.00000   0.00000   0.00000
 138        4YZ         0.00000   0.00000   0.00000   0.00000   0.00000
 139 18  H  1S          0.00000  -0.00002   0.00001   0.01757  -0.03608
 140        2S          0.00051   0.00186  -0.00186   0.00166  -0.00508
 141 19  H  1S          0.00000  -0.00002   0.00001   0.01757  -0.03608
 142        2S          0.00051   0.00186  -0.00186   0.00166  -0.00508
 143 20  H  1S         -0.00002  -0.00001   0.00001   0.01957  -0.03847
 144        2S          0.00047   0.00188  -0.00184   0.00467  -0.00773
                          11        12        13        14        15
                           O         O         O         O         O
     Eigenvalues --    -0.75237  -0.70184  -0.65603  -0.57566  -0.55229
   1 1   C  1S          0.08080  -0.00823   0.05294  -0.09336   0.01786
   2        2S         -0.15791   0.01688  -0.10532   0.19094  -0.03636
   3        2PX        -0.03988   0.12199   0.13029  -0.03185  -0.01499
   4        2PY        -0.02518   0.00012  -0.01244  -0.03944   0.10096
   5        2PZ         0.00000   0.00000   0.00000   0.00000   0.00000
   6        3S         -0.10167  -0.00644  -0.08827   0.16712  -0.02828
   7        3PX        -0.01098   0.03513   0.03534   0.00599  -0.00083
   8        3PY         0.01316  -0.00478   0.01284  -0.02520   0.03436
   9        3PZ         0.00000   0.00000   0.00000   0.00000   0.00000
  10        4XX        -0.00248   0.00163   0.00385  -0.00878  -0.00006
  11        4YY        -0.00094   0.00020  -0.00153   0.00467  -0.00105
  12        4ZZ         0.00804  -0.00069   0.00498  -0.00791   0.00162
  13        4XY        -0.00264   0.00774   0.00841  -0.00220  -0.00402
  14        4XZ         0.00000   0.00000   0.00000   0.00000   0.00000
  15        4YZ         0.00000   0.00000   0.00000   0.00000   0.00000
  16 2   H  1S         -0.04181   0.00408  -0.03465   0.09573  -0.06569
  17        2S         -0.00206   0.00043  -0.00340   0.03836  -0.04026
  18 3   C  1S          0.00473   0.08357   0.07443   0.02668  -0.04721
  19        2S         -0.00969  -0.16603  -0.15033  -0.05602   0.09601
  20        2PX        -0.09583   0.03937  -0.08936   0.17365   0.04225
  21        2PY         0.00659   0.02539   0.02868  -0.03862   0.14135
  22        2PZ         0.00000   0.00000   0.00000   0.00000   0.00000
  23        3S         -0.00083  -0.11350  -0.09801  -0.03985   0.09026
  24        3PX        -0.03709   0.02383  -0.02911   0.04556   0.00385
  25        3PY        -0.00099  -0.01965  -0.01475  -0.01899   0.04802
  26        3PZ         0.00000   0.00000   0.00000   0.00000   0.00000
  27        4XX         0.00216   0.00073   0.00588  -0.00029  -0.00346
  28        4YY        -0.00009  -0.00171  -0.00245  -0.00097   0.00304
  29        4ZZ         0.00023   0.00801   0.00649   0.00235  -0.00406
  30        4XY         0.00577  -0.00214   0.00548  -0.01112  -0.00399
  31        4XZ         0.00000   0.00000   0.00000   0.00000   0.00000
  32        4YZ         0.00000   0.00000   0.00000   0.00000   0.00000
  33 4   H  1S         -0.00164  -0.04611  -0.04286  -0.03797   0.11135
  34        2S          0.00019  -0.00052  -0.00373  -0.01647   0.06457
  35 5   C  1S         -0.09172   0.05162  -0.06164   0.07079   0.07208
  36        2S          0.18058  -0.10371   0.12434  -0.14558  -0.14737
  37        2PX        -0.05720  -0.08901  -0.11065  -0.10611  -0.01323
  38        2PY         0.03373  -0.01066   0.02404  -0.00312   0.18046
  39        2PZ         0.00000   0.00000   0.00000   0.00000   0.00000
  40        3S          0.11785  -0.05300   0.08237  -0.13630  -0.14271
  41        3PX        -0.02114  -0.03816  -0.04167  -0.03121  -0.00542
  42        3PY        -0.01784   0.02107  -0.01439   0.00544   0.05975
  43        3PZ         0.00000   0.00000   0.00000   0.00000   0.00000
  44        4XX         0.00046  -0.00052  -0.00513   0.00610   0.00472
  45        4YY         0.00125  -0.00101   0.00211  -0.00338  -0.00434
  46        4ZZ        -0.00902   0.00491  -0.00540   0.00590   0.00618
  47        4XY        -0.00371  -0.00521  -0.00656  -0.00683  -0.00237
  48        4XZ         0.00000   0.00000   0.00000   0.00000   0.00000
  49        4YZ         0.00000   0.00000   0.00000   0.00000   0.00000
  50 6   H  1S          0.04673  -0.02979   0.03602  -0.05446  -0.15112
  51        2S         -0.00002   0.00004   0.00179  -0.01655  -0.08521
  52 7   C  1S         -0.09172  -0.05162  -0.06164  -0.07079  -0.07208
  53        2S          0.18058   0.10371   0.12434   0.14558   0.14737
  54        2PX         0.05720  -0.08901   0.11065  -0.10611  -0.01323
  55        2PY        -0.03373  -0.01066  -0.02404  -0.00312   0.18046
  56        2PZ         0.00000   0.00000   0.00000   0.00000   0.00000
  57        3S          0.11785   0.05300   0.08237   0.13630   0.14271
  58        3PX         0.02114  -0.03816   0.04167  -0.03121  -0.00542
  59        3PY         0.01784   0.02107   0.01439   0.00544   0.05975
  60        3PZ         0.00000   0.00000   0.00000   0.00000   0.00000
  61        4XX         0.00046   0.00052  -0.00513  -0.00610  -0.00472
  62        4YY         0.00125   0.00101   0.00211   0.00338   0.00434
  63        4ZZ        -0.00902  -0.00491  -0.00540  -0.00590  -0.00618
  64        4XY        -0.00371   0.00521  -0.00656   0.00683   0.00237
  65        4XZ         0.00000   0.00000   0.00000   0.00000   0.00000
  66        4YZ         0.00000   0.00000   0.00000   0.00000   0.00000
  67 8   H  1S          0.04673   0.02979   0.03602   0.05446   0.15112
  68        2S         -0.00002  -0.00004   0.00179   0.01655   0.08521
  69 9   C  1S          0.00473  -0.08357   0.07443  -0.02668   0.04721
  70        2S         -0.00969   0.16603  -0.15033   0.05602  -0.09601
  71        2PX         0.09583   0.03937   0.08936   0.17365   0.04225
  72        2PY        -0.00659   0.02539  -0.02868  -0.03862   0.14135
  73        2PZ         0.00000   0.00000   0.00000   0.00000   0.00000
  74        3S         -0.00083   0.11350  -0.09801   0.03985  -0.09026
  75        3PX         0.03709   0.02383   0.02911   0.04556   0.00385
  76        3PY         0.00099  -0.01965   0.01475  -0.01899   0.04802
  77        3PZ         0.00000   0.00000   0.00000   0.00000   0.00000
  78        4XX         0.00216  -0.00073   0.00588   0.00029   0.00346
  79        4YY        -0.00009   0.00171  -0.00245   0.00097  -0.00304
  80        4ZZ         0.00023  -0.00801   0.00649  -0.00235   0.00406
  81        4XY         0.00577   0.00214   0.00548   0.01112   0.00399
  82        4XZ         0.00000   0.00000   0.00000   0.00000   0.00000
  83        4YZ         0.00000   0.00000   0.00000   0.00000   0.00000
  84 10  H  1S         -0.00164   0.04611  -0.04286   0.03797  -0.11135
  85        2S          0.00019   0.00052  -0.00373   0.01647  -0.06457
  86 11  C  1S          0.08080   0.00823   0.05294   0.09336  -0.01786
  87        2S         -0.15791  -0.01688  -0.10532  -0.19094   0.03636
  88        2PX         0.03988   0.12199  -0.13029  -0.03185  -0.01499
  89        2PY         0.02518   0.00012   0.01244  -0.03944   0.10096
  90        2PZ         0.00000   0.00000   0.00000   0.00000   0.00000
  91        3S         -0.10167   0.00644  -0.08827  -0.16712   0.02828
  92        3PX         0.01098   0.03513  -0.03534   0.00599  -0.00083
  93        3PY        -0.01316  -0.00478  -0.01284  -0.02520   0.03436
  94        3PZ         0.00000   0.00000   0.00000   0.00000   0.00000
  95        4XX        -0.00248  -0.00163   0.00385   0.00878   0.00006
  96        4YY        -0.00094  -0.00020  -0.00153  -0.00467   0.00105
  97        4ZZ         0.00804   0.00069   0.00498   0.00791  -0.00162
  98        4XY        -0.00264  -0.00774   0.00841   0.00220   0.00402
  99        4XZ         0.00000   0.00000   0.00000   0.00000   0.00000
 100        4YZ         0.00000   0.00000   0.00000   0.00000   0.00000
 101 12  H  1S         -0.04181  -0.00408  -0.03465  -0.09573   0.06569
 102        2S         -0.00206  -0.00043  -0.00340  -0.03836   0.04026
 103 13  C  1S          0.09400  -0.10782  -0.09201   0.05371   0.00040
 104        2S         -0.17925   0.20891   0.18123  -0.10755  -0.00024
 105        2PX         0.03046   0.00597   0.04827  -0.09813  -0.01087
 106        2PY         0.01325  -0.00666   0.00726  -0.05027   0.03688
 107        2PZ         0.00000   0.00000   0.00000   0.00000   0.00000
 108        3S         -0.16207   0.19331   0.16911  -0.11845  -0.00783
 109        3PX         0.00607   0.00700   0.02300  -0.03631  -0.00396
 110        3PY         0.00022   0.00151   0.00226  -0.01218   0.01527
 111        3PZ         0.00000   0.00000   0.00000   0.00000   0.00000
 112        4XX        -0.00236  -0.00228  -0.00616   0.00773   0.00045
 113        4YY         0.00025   0.00056   0.00132  -0.00199   0.00038
 114        4ZZ         0.00129   0.00076   0.00281  -0.00433  -0.00115
 115        4XY        -0.00108  -0.00113  -0.00331   0.00643  -0.00206
 116        4XZ         0.00000   0.00000   0.00000   0.00000   0.00000
 117        4YZ         0.00000   0.00000   0.00000   0.00000   0.00000
 118 14  H  1S         -0.05425   0.07380   0.07494  -0.06011  -0.00816
 119        2S         -0.01060   0.01929   0.02392  -0.02594  -0.00394
 120 15  H  1S         -0.05456   0.06917   0.06751  -0.06543   0.01990
 121        2S         -0.01001   0.01547   0.02116  -0.03180   0.01429
 122 16  H  1S         -0.05425   0.07380   0.07494  -0.06011  -0.00816
 123        2S         -0.01060   0.01929   0.02392  -0.02594  -0.00394
 124 17  C  1S          0.09400   0.10782  -0.09201  -0.05371  -0.00040
 125        2S         -0.17925  -0.20891   0.18123   0.10755   0.00024
 126        2PX        -0.03046   0.00597  -0.04827  -0.09813  -0.01087
 127        2PY        -0.01325  -0.00666  -0.00726  -0.05027   0.03688
 128        2PZ         0.00000   0.00000   0.00000   0.00000   0.00000
 129        3S         -0.16207  -0.19331   0.16911   0.11845   0.00783
 130        3PX        -0.00607   0.00700  -0.02300  -0.03631  -0.00396
 131        3PY        -0.00022   0.00151  -0.00226  -0.01218   0.01527
 132        3PZ         0.00000   0.00000   0.00000   0.00000   0.00000
 133        4XX        -0.00236   0.00228  -0.00616  -0.00773  -0.00045
 134        4YY         0.00025  -0.00056   0.00132   0.00199  -0.00038
 135        4ZZ         0.00129  -0.00076   0.00281   0.00433   0.00115
 136        4XY        -0.00108   0.00113  -0.00331  -0.00643   0.00206
 137        4XZ         0.00000   0.00000   0.00000   0.00000   0.00000
 138        4YZ         0.00000   0.00000   0.00000   0.00000   0.00000
 139 18  H  1S         -0.05425  -0.07380   0.07494   0.06011   0.00816
 140        2S         -0.01060  -0.01929   0.02392   0.02594   0.00394
[...]
  89        2PY         0.73550
  90        2PZ         0.55952
  91        3S          0.52659
  92        3PX         0.19452
  93        3PY         0.20460
  94        3PZ         0.42717
  95        4XX         0.00290
  96        4YY         0.01237
  97        4ZZ        -0.02449
  98        4XY         0.00925
  99        4XZ         0.00699
 100        4YZ         0.00123
 101 12  H  1S          0.53247
 102        2S          0.34516
 103 13  C  1S          1.99184
 104        2S          0.67750
 105        2PX         0.70561
 106        2PY         0.71628
 107        2PZ         0.71284
 108        3S          0.64071
 109        3PX         0.31707
 110        3PY         0.34354
 111        3PZ         0.35565
 112        4XX        -0.00118
 113        4YY         0.00693
 114        4ZZ         0.00404
 115        4XY         0.00488
 116        4XZ         0.01153
 117        4YZ         0.00263
 118 14  H  1S          0.52314
 119        2S          0.31998
 120 15  H  1S          0.52611
 121        2S          0.32039
 122 16  H  1S          0.52314
 123        2S          0.31998
 124 17  C  1S          1.99184
 125        2S          0.67750
 126        2PX         0.70561
 127        2PY         0.71628
 128        2PZ         0.71284
 129        3S          0.64071
 130        3PX         0.31707
 131        3PY         0.34354
 132        3PZ         0.35565
 133        4XX        -0.00118
 134        4YY         0.00693
 135        4ZZ         0.00404
 136        4XY         0.00488
 137        4XZ         0.01153
 138        4YZ         0.00263
 139 18  H  1S          0.52314
 140        2S          0.31998
 141 19  H  1S          0.52314
 142        2S          0.31998
 143 20  H  1S          0.52611
 144        2S          0.32039
          Condensed to atoms (all electrons):
               1          2          3          4          5          6
     1  C    4.907055   0.364671   0.644859  -0.054245  -0.017516  -0.006265
     2  H    0.364671   0.611341  -0.046679   0.006683  -0.010528   0.005758
     3  C    0.644859  -0.046679   4.811482   0.360905   0.421824  -0.053858
     4  H   -0.054245   0.006683   0.360905   0.623109  -0.053365   0.005474
     5  C   -0.017516  -0.010528   0.421824  -0.053365   4.909731   0.363022
     6  H   -0.006265   0.005758  -0.053858   0.005474   0.363022   0.619988
     7  C    0.002873   0.000464  -0.009013  -0.006359   0.576788  -0.056150
     8  H    0.000404   0.000014  -0.008021   0.005309  -0.056150   0.006315
     9  C   -0.000235   0.000000   0.003331   0.000259  -0.009013  -0.008021
    10  H   -0.000001   0.000001   0.000259   0.000009  -0.006359   0.005309
    11  C    0.000003   0.000000  -0.000235  -0.000001   0.002873   0.000404
    12  H    0.000000   0.000000   0.000000   0.000001   0.000464   0.000014
    13  C    0.363185  -0.057344  -0.017517  -0.009970   0.004241   0.000099
    14  H   -0.030798  -0.000697  -0.000992   0.000120  -0.000104   0.000000
    15  H   -0.035841   0.004650  -0.005558   0.006656   0.000185   0.000012
    16  H   -0.030798  -0.000697  -0.000992   0.000120  -0.000104   0.000000
    17  C    0.000000   0.000000   0.000002   0.000000  -0.000220  -0.000005
    18  H    0.000000   0.000000   0.000000   0.000000   0.000004   0.000000
    19  H    0.000000   0.000000   0.000000   0.000000   0.000004   0.000000
    20  H    0.000000   0.000000   0.000000   0.000000   0.000006   0.000000
               7          8          9         10         11         12
     1  C    0.002873   0.000404  -0.000235  -0.000001   0.000003   0.000000
     2  H    0.000464   0.000014   0.000000   0.000001   0.000000   0.000000
     3  C   -0.009013  -0.008021   0.003331   0.000259  -0.000235   0.000000
     4  H   -0.006359   0.005309   0.000259   0.000009  -0.000001   0.000001
     5  C    0.576788  -0.056150  -0.009013  -0.006359   0.002873   0.000464
     6  H   -0.056150   0.006315  -0.008021   0.005309   0.000404   0.000014
     7  C    4.909731   0.363022   0.421824  -0.053365  -0.017516  -0.010528
     8  H    0.363022   0.619988  -0.053858   0.005474  -0.006265   0.005758
     9  C    0.421824  -0.053858   4.811482   0.360905   0.644859  -0.046679
    10  H   -0.053365   0.005474   0.360905   0.623109  -0.054245   0.006683
    11  C   -0.017516  -0.006265   0.644859  -0.054245   4.907055   0.364671
    12  H   -0.010528   0.005758  -0.046679   0.006683   0.364671   0.611341
    13  C   -0.000220  -0.000005   0.000002   0.000000   0.000000   0.000000
    14  H    0.000004   0.000000   0.000000   0.000000   0.000000   0.000000
    15  H    0.000006   0.000000   0.000000   0.000000   0.000000   0.000000
    16  H    0.000004   0.000000   0.000000   0.000000   0.000000   0.000000
    17  C    0.004241   0.000099  -0.017517  -0.009970   0.363185  -0.057344
    18  H   -0.000104   0.000000  -0.000992   0.000120  -0.030798  -0.000697
    19  H   -0.000104   0.000000  -0.000992   0.000120  -0.030798  -0.000697
    20  H    0.000185   0.000012  -0.005558   0.006656  -0.035841   0.004650
              13         14         15         16         17         18
     1  C    0.363185  -0.030798  -0.035841  -0.030798   0.000000   0.000000
     2  H   -0.057344  -0.000697   0.004650  -0.000697   0.000000   0.000000
     3  C   -0.017517  -0.000992  -0.005558  -0.000992   0.000002   0.000000
     4  H   -0.009970   0.000120   0.006656   0.000120   0.000000   0.000000
     5  C    0.004241  -0.000104   0.000185  -0.000104  -0.000220   0.000004
     6  H    0.000099   0.000000   0.000012   0.000000  -0.000005   0.000000
     7  C   -0.000220   0.000004   0.000006   0.000004   0.004241  -0.000104
     8  H   -0.000005   0.000000   0.000000   0.000000   0.000099   0.000000
     9  C    0.000002   0.000000   0.000000   0.000000  -0.017517  -0.000992
    10  H    0.000000   0.000000   0.000000   0.000000  -0.009970   0.000120
    11  C    0.000000   0.000000   0.000000   0.000000   0.363185  -0.030798
    12  H    0.000000   0.000000   0.000000   0.000000  -0.057344  -0.000697
    13  C    5.099769   0.366963   0.373720   0.366963   0.000000   0.000000
    14  H    0.366963   0.574132  -0.028249  -0.037257   0.000000   0.000000
    15  H    0.373720  -0.028249   0.559172  -0.028249   0.000000   0.000000
    16  H    0.366963  -0.037257  -0.028249   0.574132   0.000000   0.000000
    17  C    0.000000   0.000000   0.000000   0.000000   5.099769   0.366963
    18  H    0.000000   0.000000   0.000000   0.000000   0.366963   0.574132
    19  H    0.000000   0.000000   0.000000   0.000000   0.366963  -0.037257
    20  H    0.000000   0.000000   0.000000   0.000000   0.373720  -0.028249
              19         20
     1  C    0.000000   0.000000
     2  H    0.000000   0.000000
     3  C    0.000000   0.000000
     4  H    0.000000   0.000000
     5  C    0.000004   0.000006
     6  H    0.000000   0.000000
     7  C   -0.000104   0.000185
     8  H    0.000000   0.000012
     9  C   -0.000992  -0.005558
    10  H    0.000120   0.006656
    11  C   -0.030798  -0.035841
    12  H   -0.000697   0.004650
    13  C    0.000000   0.000000
    14  H    0.000000   0.000000
    15  H    0.000000   0.000000
    16  H    0.000000   0.000000
    17  C    0.366963   0.373720
    18  H   -0.037257  -0.028249
    19  H    0.574132  -0.028249
    20  H   -0.028249   0.559172
 Mulliken charges:
               1
     1  C   -0.107352
     2  H    0.122363
     3  C   -0.099797
     4  H    0.115296
     5  C   -0.125783
     6  H    0.117902
     7  C   -0.125783
     8  H    0.117902
     9  C   -0.099797
    10  H    0.115296
    11  C   -0.107352
    12  H    0.122363
    13  C   -0.489886
    14  H    0.156880
    15  H    0.153497
    16  H    0.156879
    17  C   -0.489886
    18  H    0.156879
    19  H    0.156880
    20  H    0.153497
 Sum of Mulliken charges =   0.00000
 Mulliken charges with hydrogens summed into heavy atoms:
               1
     1  C    0.015011
     3  C    0.015499
     5  C   -0.007881
     7  C   -0.007881
     9  C    0.015499
    11  C    0.015011
    13  C   -0.022629
    17  C   -0.022629
 Electronic spatial extent (au):  <R**2>=           2184.8345
 Charge=              0.0000 electrons
 Dipole moment (field-independent basis, Debye):
    X=              0.0000    Y=              0.0000    Z=              0.0000  Tot=              0.0000
 Quadrupole moment (field-independent basis, Debye-Ang):
   XX=            -42.8014   YY=            -46.5130   ZZ=            -53.3318
   XY=             -0.6297   XZ=              0.0000   YZ=              0.0000
 Traceless Quadrupole moment (field-independent basis, Debye-Ang):
   XX=              4.7473   YY=              1.0358   ZZ=             -5.7831
   XY=             -0.6297   XZ=              0.0000   YZ=              0.0000
 Octapole moment (field-independent basis, Debye-Ang**2):
  XXX=              0.0000  YYY=              0.0000  ZZZ=              0.0001  XYY=              0.0000
  XXY=              0.0000  XXZ=              0.0001  XZZ=              0.0000  YZZ=              0.0000
  YYZ=              0.0000  XYZ=              0.0000
 Hexadecapole moment (field-independent basis, Debye-Ang**3):
 XXXX=          -2652.4640 YYYY=           -135.7276 ZZZZ=            -68.5187 XXXY=            -19.9534
 XXXZ=              0.0000 YYYX=              1.3790 YYYZ=              0.0000 ZZZX=              0.0000
 ZZZY=              0.0000 XXYY=           -477.6118 XXZZ=           -482.2036 YYZZ=            -37.5221
 XXYZ=              0.0000 YYXZ=              0.0000 ZZXY=             -2.0615
 N-N= 3.128364190484D+02 E-N=-1.346793163503D+03  KE= 3.088683017286D+02
 Orbital energies and kinetic energies (alpha):
                                 1                 2
   1         O               -10.186208         15.879849
   2         O               -10.186208         15.879914
   3         O               -10.183855         15.873440
   4         O               -10.183107         15.885517
   5         O               -10.181623         15.881753
   6         O               -10.181614         15.882299
   7         O               -10.181557         15.882328
   8         O               -10.181557         15.882434
   9         O                -0.813699          1.505583
  10         O                -0.789571          1.490157
  11         O                -0.752371          1.469737
  12         O                -0.701836          1.441078
  13         O                -0.656027          1.542336
  14         O                -0.575664          1.513984
  15         O                -0.552290          1.061132
  16         O                -0.540162          1.216929
  17         O                -0.468470          1.073530
  18         O                -0.456748          1.282759
  19         O                -0.425768          1.130844
  20         O                -0.409368          0.942375
  21         O                -0.408911          0.944417
  22         O                -0.403635          1.286040
  23         O                -0.380052          1.207592
  24         O                -0.366742          1.307789
  25         O                -0.358928          1.269383
  26         O                -0.347014          1.172574
  27         O                -0.336496          1.270761
  28         O                -0.324796          0.985396
  29         O                -0.268878          1.072327
  30         O                -0.193150          1.199894
  31         V                -0.032800          1.322278
  32         V                 0.057113          1.434260
  33         V                 0.100159          0.858006
  34         V                 0.110188          1.364147
  35         V                 0.119183          0.963912
  36         V                 0.119443          0.968520
  37         V                 0.132103          0.916504
  38         V                 0.157724          1.145060
  39         V                 0.158465          1.048771
  40         V                 0.169398          0.955684
  41         V                 0.172195          1.070744
  42         V                 0.174271          0.907821
  43         V                 0.174929          0.904814
  44         V                 0.197028          1.139318
  45         V                 0.199604          1.162842
  46         V                 0.246016          1.955528
  47         V                 0.275771          1.544701
  48         V                 0.348027          1.878728
  49         V                 0.358068          1.286365
  50         V                 0.373067          1.113476
  51         V                 0.427308          1.837150
  52         V                 0.430324          1.515327
  53         V                 0.483877          1.913698
  54         V                 0.499308          1.675063
  55         V                 0.526572          1.927251
  56         V                 0.538172          1.835654
  57         V                 0.576846          1.814190
  58         V                 0.579803          2.290800
  59         V                 0.580391          2.258900
  60         V                 0.588967          2.160529
  61         V                 0.597424          1.755392
  62         V                 0.612550          2.152598
  63         V                 0.639995          2.251207
  64         V                 0.646963          2.041497
  65         V                 0.651542          2.137393
  66         V                 0.658568          2.079425
  67         V                 0.729237          2.067552
  68         V                 0.732321          2.154121
  69         V                 0.735636          2.073502
  70         V                 0.740674          2.194462
  71         V                 0.775419          2.583428
  72         V                 0.781129          2.536354
  73         V                 0.838626          2.749820
  74         V                 0.867394          2.569444
  75         V                 0.875208          2.765439
  76         V                 0.875225          2.514715
  77         V                 0.880332          2.519655
  78         V                 0.881343          2.549279
  79         V                 0.902053          2.525085
  80         V                 0.903222          2.576741
  81         V                 0.910351          2.719667
  82         V                 0.924150          2.699300
  83         V                 0.951214          2.644225
  84         V                 0.952333          2.727812
  85         V                 0.986836          2.509567
  86         V                 1.002430          2.483475
  87         V                 1.059598          2.272102
  88         V                 1.085280          2.130085
  89         V                 1.151563          2.370460
  90         V                 1.172614          2.212183
  91         V                 1.241645          2.316755
  92         V                 1.278176          2.395707
  93         V                 1.334883          2.492564
  94         V                 1.346689          2.514421
  95         V                 1.347290          2.508758
  96         V                 1.378949          2.400403
  97         V                 1.392498          2.550046
  98         V                 1.422832          2.496524
  99         V                 1.446364          2.579460
 100         V                 1.484515          2.670602
 101         V                 1.543914          2.704374
 102         V                 1.639344          2.815734
 103         V                 1.721932          2.905699
 104         V                 1.766551          2.983507
 105         V                 1.783300          3.022605
 106         V                 1.837322          3.234119
 107         V                 1.854058          3.153946
 108         V                 1.895785          3.016792
 109         V                 1.897803          3.177246
 110         V                 1.928945          3.287554
 111         V                 1.960659          3.118283
 112         V                 1.976520          3.358265
 113         V                 2.012567          3.308625
 114         V                 2.073880          3.282929
 115         V                 2.089992          3.554689
 116         V                 2.164416          3.621328
 117         V                 2.182274          3.506430
 118         V                 2.205796          3.483610
 119         V                 2.212529          3.654681
 120         V                 2.307729          3.640890
 121         V                 2.308623          3.772912
 122         V                 2.321896          3.740901
 123         V                 2.356020          3.652888
 124         V                 2.359197          3.844648
 125         V                 2.379944          3.837237
 126         V                 2.454151          3.712811
 127         V                 2.502630          3.754007
 128         V                 2.508059          3.765503
 129         V                 2.542127          4.036183
 130         V                 2.633099          4.367827
 131         V                 2.783710          4.615408
 132         V                 2.857286          4.789281
 133         V                 2.917001          4.691344
 134         V                 2.936891          4.639351
 135         V                 3.073714          4.874978
 136         V                 3.084605          4.935317
 137         V                 4.098195         10.177059
 138         V                 4.112761         10.182630
 139         V                 4.144897         10.191290
 140         V                 4.187190         10.167991
 141         V                 4.286538         10.176032
 142         V                 4.346589         10.149131
 143         V                 4.432178         10.116904
 144         V                 4.533486         10.090114
 Total kinetic energy from orbitals= 3.088683017286D+02
 Leave Link  601 at Mon Jun 07 15:21:53 2021, MaxMem=    33554432 cpu:         0.0
 (Enter C:\G09W\l9999.exe)
 1|1|UNPC-DESKTOP-283F0EC|SP|RB3LYP TD-FC|6-31G(d)|C8H12|HANA|07-Jun-20
 21|0||#p td=(nstates=10) b3lyp/6-31g(d) nosymm geom=connectivity pop=f
 ull||opt||0,1|C,0,3.05401,-0.432023,0.|H,0,3.010941,-1.522581,0.000003
 |C,0,1.897641,0.256713,-0.000002|H,0,1.934023,1.347746,-0.000002|C,0,0
 .580982,-0.346835,-0.000006|H,0,0.541992,-1.437377,-0.000002|C,0,-0.58
 0982,0.346835,-0.000007|H,0,-0.541992,1.437377,-0.000006|C,0,-1.897641
 ,-0.256713,-0.000004|H,0,-1.934023,-1.347746,-0.000004|C,0,-3.05401,0.
 432023,0.000001|H,0,-3.010941,1.522581,0.000005|C,0,4.422617,0.178888,
 0.000005|H,0,5.001295,-0.13582,-0.879902|H,0,4.37566,1.273185,0.000002
 |H,0,5.001284,-0.135813,0.879923|C,0,-4.422617,-0.178888,0.000006|H,0,
 -5.001284,0.135812,0.879924|H,0,-5.001295,0.135821,-0.879901|H,0,-4.37
 566,-1.273185,0.000001||Version=EM64W-G09RevD.01|HF=-312.038711|RMSD=4
 .267e-009|PG=C01 [X(C8H12)]||@


 WE TEND TO MEET ANY NEW SITUATION BY REORGANIZING. IT CAN BE A
 WONDERFUL METHOD FOR CREATING THE ILLUSION OF PROGRESS WHILE PRODUCING
 CONFUSION, INEFFICIENCY, AND DEMORALIZATION.
     -- PETRONIUS ARBITER, 210 B.C.
 Job cpu time:       0 days  0 hours  5 minutes 21.0 seconds.
 File lengths (MBytes):  RWF=     65 Int=      0 D2E=      0 Chk=     10 Scr=      1
 Normal termination of Gaussian 09 at Mon Jun 07 15:21:53 2021.
