 Entering Link 1 = C:\G09W\l1.exe PID=      3528.
  
 Copyright (c) 1988,1990,1992,1993,1995,1998,2003,2009,2013,
            Gaussian, Inc.  All Rights Reserved.
  
 This is part of the Gaussian(R) 09 program.  It is based on
 the Gaussian(R) 03 system (copyright 2003, Gaussian, Inc.),
 the Gaussian(R) 98 system (copyright 1998, Gaussian, Inc.),
 the Gaussian(R) 94 system (copyright 1995, Gaussian, Inc.),
 the Gaussian 92(TM) system (copyright 1992, Gaussian, Inc.),
 the Gaussian 90(TM) system (copyright 1990, Gaussian, Inc.),
 the Gaussian 88(TM) system (copyright 1988, Gaussian, Inc.),
 the Gaussian 86(TM) system (copyright 1986, Carnegie Mellon
 University), and the Gaussian 82(TM) system (copyright 1983,
 Carnegie Mellon University). Gaussian is a federally registered
 trademark of Gaussian, Inc.
  
 This software contains proprietary and confidential information,
 including trade secrets, belonging to Gaussian, Inc.
  
 This software is provided under written license and may be
 used, copied, transmitted, or stored only in accord with that
 written license.
  
 The following legend is applicable only to US Government
 contracts under FAR:
  
                    RESTRICTED RIGHTS LEGEND
  
 Use, reproduction and disclosure by the US Government is
 subject to restrictions as set forth in subparagraphs (a)
 and (c) of the Commercial Computer Software - Restricted
 Rights clause in FAR 52.227-19.
  
 Gaussian, Inc.
 340 Quinnipiac St., Bldg. 40, Wallingford CT 06492
  
  
 ---------------------------------------------------------------
 Warning -- This program may not be used in any manner that
 competes with the business of Gaussian, Inc. or will provide
 assistance to any competitor of Gaussian, Inc.  The licensee
 of this program is prohibited from giving any competitor of
 Gaussian, Inc. access to this program.  By using this program,
 the user acknowledges that Gaussian, Inc. is engaged in the
 business of creating and licensing software in the field of
 computational chemistry and represents and warrants to the
 licensee that it is not a competitor of Gaussian, Inc. and that
 it will not use this program in any manner prohibited above.
 ---------------------------------------------------------------
  

 Cite this work as:
 Gaussian 09, Revision D.01,
 M. J. Frisch, G. W. Trucks, H. B. Schlegel, G. E. Scuseria, 
 M. A. Robb, J. R. Cheeseman, G. Scalmani, V. Barone, B. Mennucci, 
 G. A. Petersson, H. Nakatsuji, M. Caricato, X. Li, H. P. Hratchian, 
 A. F. Izmaylov, J. Bloino, G. Zheng, J. L. Sonnenberg, M. Hada, 
 M. Ehara, K. Toyota, R. Fukuda, J. Hasegawa, M. Ishida, T. Nakajima, 
 Y. Honda, O. Kitao, H. Nakai, T. Vreven, J. A. Montgomery, Jr., 
 J. E. Peralta, F. Ogliaro, M. Bearpark, J. J. Heyd, E. Brothers, 
 K. N. Kudin, V. N. Staroverov, T. Keith, R. Kobayashi, J. Normand, 
 K. Raghavachari, A. Rendell, J. C. Burant, S. S. Iyengar, J. Tomasi, 
 M. Cossi, N. Rega, J. M. Millam, M. Klene, J. E. Knox, J. B. Cross, 
 V. Bakken, C. Adamo, J. Jaramillo, R. Gomperts, R. E. Stratmann, 
 O. Yazyev, A. J. Austin, R. Cammi, C. Pomelli, J. W. Ochterski, 
 R. L. Martin, K. Morokuma, V. G. Zakrzewski, G. A. Voth, 
 P. Salvador, J. J. Dannenberg, S. Dapprich, A. D. Daniels, 
 O. Farkas, J. B. Foresman, J. V. Ortiz, J. Cioslowski, 
 and D. J. Fox, Gaussian, Inc., Wallingford CT, 2013.
 
 ******************************************
 Gaussian 09:  EM64W-G09RevD.01 13-Apr-2013
                07-Jun-2021 
 ******************************************
 %chk=C:\G09W\mine\substituent\mini\3\mini_3_pp.chk
 -----------------------------------------------------------
 #p opt=tight b3lyp/6-31g(d) geom=connectivity int=ultrafine
 -----------------------------------------------------------
 1/7=10,14=-1,18=20,19=15,26=4,38=1,57=2/1,3;
 2/9=110,12=2,17=6,18=5,40=1/2;
 3/5=1,6=6,7=1,11=2,16=1,25=1,30=1,71=1,74=-5,75=-5/1,2,3;
 4//1;
 5/5=2,38=5/2;
 6/7=2,8=2,9=2,10=2,28=1/1;
 7//1,2,3,16;
 1/7=10,14=-1,18=20,19=15,26=4/3(2);
 2/9=110/2;
 99//99;
 2/9=110/2;
 3/5=1,6=6,7=1,11=2,16=1,25=1,30=1,71=1,74=-5,75=-5/1,2,3;
 4/5=5,16=3,69=1/1;
 5/5=2,38=5/2;
 7//1,2,3,16;
 1/7=10,14=-1,18=20,19=15,26=4/3(-5);
 2/9=110/2;
 6/7=2,8=2,9=2,10=2,19=2,28=1/1;
 99/9=1/99;
 Leave Link    1 at Mon Jun 07 14:53:10 2021, MaxMem=           0 cpu:         0.0
 (Enter C:\G09W\l101.exe)
 ---
 opt
 ---
 Symbolic Z-matrix:
 Charge =  0 Multiplicity = 1
 C                    -3.24111  -1.55976   0.02873 
 H                    -4.30952  -1.55833   0.08692 
 C                    -2.56017  -0.38814   0.04272 
 H                    -1.49176  -0.38957  -0.01546 
 C                    -3.3241    0.94531   0.14236 
 H                    -4.39252   0.94674   0.20055 
 C                    -2.64317   2.11693   0.15635 
 H                    -1.57476   2.1155    0.09816 
 C                    -3.4071    3.45038   0.25599 
 H                    -4.47552   3.45181   0.31417 
 C                    -2.72617   4.622     0.26998 
 H                    -1.65775   4.62057   0.2118 
 C                    -2.47717  -2.89321  -0.07091 
 H                    -3.08472  -3.61552  -0.57494 
 H                    -1.57052  -2.74472  -0.61939 
 H                    -2.2455   -3.24587   0.91238 
 C                    -3.4901    5.95545   0.36962 
 H                    -3.61229   6.22044   1.39906 
 H                    -2.93731   6.7216   -0.1327 
 H                    -4.4515    5.85079  -0.08827 
 
 NAtoms=     20 NQM=       20 NQMF=       0 NMMI=      0 NMMIF=      0
                NMic=       0 NMicF=      0.
                    Isotopes and Nuclear Properties:
 (Nuclear quadrupole moments (NQMom) in fm**2, nuclear magnetic moments (NMagM)
  in nuclear magnetons)

  Atom         1           2           3           4           5           6           7           8           9          10
 IAtWgt=          12           1          12           1          12           1          12           1          12           1
 AtmWgt=  12.0000000   1.0078250  12.0000000   1.0078250  12.0000000   1.0078250  12.0000000   1.0078250  12.0000000   1.0078250
 NucSpn=           0           1           0           1           0           1           0           1           0           1
 AtZEff=   0.0000000   0.0000000   0.0000000   0.0000000   0.0000000   0.0000000   0.0000000   0.0000000   0.0000000   0.0000000
 NQMom=    0.0000000   0.0000000   0.0000000   0.0000000   0.0000000   0.0000000   0.0000000   0.0000000   0.0000000   0.0000000
 NMagM=    0.0000000   2.7928460   0.0000000   2.7928460   0.0000000   2.7928460   0.0000000   2.7928460   0.0000000   2.7928460
 AtZNuc=   6.0000000   1.0000000   6.0000000   1.0000000   6.0000000   1.0000000   6.0000000   1.0000000   6.0000000   1.0000000

  Atom        11          12          13          14          15          16          17          18          19          20
 IAtWgt=          12           1          12           1           1           1          12           1           1           1
 AtmWgt=  12.0000000   1.0078250  12.0000000   1.0078250   1.0078250   1.0078250  12.0000000   1.0078250   1.0078250   1.0078250
 NucSpn=           0           1           0           1           1           1           0           1           1           1
 AtZEff=   0.0000000   0.0000000   0.0000000   0.0000000   0.0000000   0.0000000   0.0000000   0.0000000   0.0000000   0.0000000
 NQMom=    0.0000000   0.0000000   0.0000000   0.0000000   0.0000000   0.0000000   0.0000000   0.0000000   0.0000000   0.0000000
 NMagM=    0.0000000   2.7928460   0.0000000   2.7928460   2.7928460   2.7928460   0.0000000   2.7928460   2.7928460   2.7928460
 AtZNuc=   6.0000000   1.0000000   6.0000000   1.0000000   1.0000000   1.0000000   6.0000000   1.0000000   1.0000000   1.0000000
 Leave Link  101 at Mon Jun 07 14:53:10 2021, MaxMem=    33554432 cpu:         0.0
 (Enter C:\G09W\l103.exe)

 GradGradGradGradGradGradGradGradGradGradGradGradGradGradGradGradGradGrad
 Berny optimization.
 Initialization pass.
                           ----------------------------
                           !    Initial Parameters    !
                           ! (Angstroms and Degrees)  !
 --------------------------                            --------------------------
 ! Name  Definition              Value          Derivative Info.                !
 --------------------------------------------------------------------------------
 ! R1    R(1,2)                  1.07           estimate D2E/DX2                !
 ! R2    R(1,3)                  1.3552         estimate D2E/DX2                !
 ! R3    R(1,13)                 1.54           estimate D2E/DX2                !
 ! R4    R(3,4)                  1.07           estimate D2E/DX2                !
 ! R5    R(3,5)                  1.54           estimate D2E/DX2                !
 ! R6    R(5,6)                  1.07           estimate D2E/DX2                !
 ! R7    R(5,7)                  1.3552         estimate D2E/DX2                !
 ! R8    R(7,8)                  1.07           estimate D2E/DX2                !
 ! R9    R(7,9)                  1.54           estimate D2E/DX2                !
 ! R10   R(9,10)                 1.07           estimate D2E/DX2                !
 ! R11   R(9,11)                 1.3552         estimate D2E/DX2                !
 ! R12   R(11,12)                1.07           estimate D2E/DX2                !
 ! R13   R(11,17)                1.54           estimate D2E/DX2                !
 ! R14   R(13,14)                1.07           estimate D2E/DX2                !
 ! R15   R(13,15)                1.07           estimate D2E/DX2                !
 ! R16   R(13,16)                1.07           estimate D2E/DX2                !
 ! R17   R(17,18)                1.07           estimate D2E/DX2                !
 ! R18   R(17,19)                1.07           estimate D2E/DX2                !
 ! R19   R(17,20)                1.07           estimate D2E/DX2                !
 ! A1    A(2,1,3)              120.0            estimate D2E/DX2                !
 ! A2    A(2,1,13)             120.0            estimate D2E/DX2                !
 ! A3    A(3,1,13)             120.0            estimate D2E/DX2                !
 ! A4    A(1,3,4)              120.0            estimate D2E/DX2                !
 ! A5    A(1,3,5)              120.0            estimate D2E/DX2                !
 ! A6    A(4,3,5)              120.0            estimate D2E/DX2                !
 ! A7    A(3,5,6)              120.0            estimate D2E/DX2                !
 ! A8    A(3,5,7)              120.0            estimate D2E/DX2                !
 ! A9    A(6,5,7)              120.0            estimate D2E/DX2                !
 ! A10   A(5,7,8)              120.0            estimate D2E/DX2                !
 ! A11   A(5,7,9)              120.0            estimate D2E/DX2                !
 ! A12   A(8,7,9)              120.0            estimate D2E/DX2                !
 ! A13   A(7,9,10)             120.0            estimate D2E/DX2                !
 ! A14   A(7,9,11)             120.0            estimate D2E/DX2                !
 ! A15   A(10,9,11)            120.0            estimate D2E/DX2                !
 ! A16   A(9,11,12)            120.0            estimate D2E/DX2                !
 ! A17   A(9,11,17)            120.0            estimate D2E/DX2                !
 ! A18   A(12,11,17)           120.0            estimate D2E/DX2                !
 ! A19   A(1,13,14)            109.4712         estimate D2E/DX2                !
 ! A20   A(1,13,15)            109.4712         estimate D2E/DX2                !
 ! A21   A(1,13,16)            109.4712         estimate D2E/DX2                !
 ! A22   A(14,13,15)           109.4712         estimate D2E/DX2                !
 ! A23   A(14,13,16)           109.4712         estimate D2E/DX2                !
 ! A24   A(15,13,16)           109.4712         estimate D2E/DX2                !
 ! A25   A(11,17,18)           109.4712         estimate D2E/DX2                !
 ! A26   A(11,17,19)           109.4712         estimate D2E/DX2                !
 ! A27   A(11,17,20)           109.4712         estimate D2E/DX2                !
 ! A28   A(18,17,19)           109.4712         estimate D2E/DX2                !
 ! A29   A(18,17,20)           109.4712         estimate D2E/DX2                !
 ! A30   A(19,17,20)           109.4712         estimate D2E/DX2                !
 ! D1    D(2,1,3,4)           -179.9998         estimate D2E/DX2                !
 ! D2    D(2,1,3,5)              0.0            estimate D2E/DX2                !
 ! D3    D(13,1,3,4)             0.0002         estimate D2E/DX2                !
 ! D4    D(13,1,3,5)           180.0            estimate D2E/DX2                !
 ! D5    D(2,1,13,14)           30.0            estimate D2E/DX2                !
 ! D6    D(2,1,13,15)          150.0            estimate D2E/DX2                !
 ! D7    D(2,1,13,16)          -90.0            estimate D2E/DX2                !
 ! D8    D(3,1,13,14)         -150.0            estimate D2E/DX2                !
 ! D9    D(3,1,13,15)          -30.0            estimate D2E/DX2                !
 ! D10   D(3,1,13,16)           90.0            estimate D2E/DX2                !
 ! D11   D(1,3,5,6)              0.0001         estimate D2E/DX2                !
 ! D12   D(1,3,5,7)           -179.9999         estimate D2E/DX2                !
 ! D13   D(4,3,5,6)            179.9999         estimate D2E/DX2                !
 ! D14   D(4,3,5,7)             -0.0001         estimate D2E/DX2                !
 ! D15   D(3,5,7,8)              0.0001         estimate D2E/DX2                !
 ! D16   D(3,5,7,9)           -179.9999         estimate D2E/DX2                !
 ! D17   D(6,5,7,8)           -180.0            estimate D2E/DX2                !
 ! D18   D(6,5,7,9)              0.0001         estimate D2E/DX2                !
 ! D19   D(5,7,9,10)            -0.0002         estimate D2E/DX2                !
 ! D20   D(5,7,9,11)           179.9998         estimate D2E/DX2                !
 ! D21   D(8,7,9,10)           179.9998         estimate D2E/DX2                !
 ! D22   D(8,7,9,11)            -0.0002         estimate D2E/DX2                !
 ! D23   D(7,9,11,12)           -0.0001         estimate D2E/DX2                !
 ! D24   D(7,9,11,17)          179.9999         estimate D2E/DX2                !
 ! D25   D(10,9,11,12)         179.9999         estimate D2E/DX2                !
 ! D26   D(10,9,11,17)          -0.0001         estimate D2E/DX2                !
 ! D27   D(9,11,17,18)          90.0            estimate D2E/DX2                !
 ! D28   D(9,11,17,19)        -150.0            estimate D2E/DX2                !
 ! D29   D(9,11,17,20)         -30.0            estimate D2E/DX2                !
 ! D30   D(12,11,17,18)        -90.0            estimate D2E/DX2                !
 ! D31   D(12,11,17,19)         30.0            estimate D2E/DX2                !
 ! D32   D(12,11,17,20)        150.0            estimate D2E/DX2                !
 --------------------------------------------------------------------------------
 Trust Radius=3.00D-01 FncErr=1.00D-07 GrdErr=1.00D-06
 Number of steps in this run=     91 maximum allowed number of steps=    120.
 GradGradGradGradGradGradGradGradGradGradGradGradGradGradGradGradGradGrad

 Leave Link  103 at Mon Jun 07 14:53:10 2021, MaxMem=    33554432 cpu:         0.0
 (Enter C:\G09W\l202.exe)
                          Input orientation:                          
 ---------------------------------------------------------------------
 Center     Atomic      Atomic             Coordinates (Angstroms)
 Number     Number       Type             X           Y           Z
 ---------------------------------------------------------------------
      1          6           0       -3.241105   -1.559761    0.028734
      2          1           0       -4.309521   -1.558333    0.086919
      3          6           0       -2.560172   -0.388138    0.042724
      4          1           0       -1.491756   -0.389567   -0.015464
      5          6           0       -3.324104    0.945308    0.142363
      6          1           0       -4.392520    0.946737    0.200549
      7          6           0       -2.643171    2.116932    0.156351
      8          1           0       -1.574756    2.115503    0.098164
      9          6           0       -3.407104    3.450378    0.255991
     10          1           0       -4.475520    3.451807    0.314175
     11          6           0       -2.726171    4.622001    0.269983
     12          1           0       -1.657755    4.620573    0.211802
     13          6           0       -2.477173   -2.893208   -0.070906
     14          1           0       -3.084716   -3.615522   -0.574943
     15          1           0       -1.570520   -2.744716   -0.619387
     16          1           0       -2.245497   -3.245871    0.912382
     17          6           0       -3.490103    5.955448    0.369621
     18          1           0       -3.612287    6.220441    1.399063
     19          1           0       -2.937305    6.721596   -0.132704
     20          1           0       -4.451501    5.850791   -0.088266
 ---------------------------------------------------------------------
                    Distance matrix (angstroms):
                    1          2          3          4          5
     1  C    0.000000
     2  H    1.070000   0.000000
     3  C    1.355200   2.105120   0.000000
     4  H    2.105120   3.052261   1.070000   0.000000
     5  C    2.509019   2.691159   1.540000   2.272510   0.000000
     6  H    2.763659   2.509019   2.272510   3.201062   1.070000
     7  C    3.727182   4.035977   2.509019   2.763659   1.355200
     8  H    4.035977   4.579972   2.691159   2.509019   2.105120
     9  C    5.018037   5.092163   3.936621   4.299700   2.509019
    10  H    5.169243   5.018037   4.299700   4.875208   2.763659
    11  C    6.207862   6.382558   5.018037   5.169243   3.727182
    12  H    6.382558   6.725053   5.092163   5.018037   4.035977
    13  C    1.540000   2.272510   2.509019   2.691159   3.936621
    14  H    2.148263   2.483995   3.327561   3.641061   4.623095
    15  H    2.148263   3.067328   2.640315   2.432624   4.155912
    16  H    2.148263   2.790944   3.003658   3.096369   4.395714
    17  C    7.527056   7.563615   6.419713   6.663399   5.018037
    18  H    7.908675   7.919418   6.827879   7.084472   5.430412
    19  H    8.288501   8.395739   7.121891   7.257547   5.795755
    20  H    7.509663   7.412555   6.520623   6.907059   5.038648
                    6          7          8          9         10
     6  H    0.000000
     7  C    2.105120   0.000000
     8  H    3.052261   1.070000   0.000000
     9  C    2.691159   1.540000   2.272510   0.000000
    10  H    2.509019   2.272510   3.201062   1.070000   0.000000
    11  C    4.035977   2.509019   2.763659   1.355200   2.105120
    12  H    4.579972   2.691159   2.509019   2.105120   3.052261
    13  C    4.299700   5.018037   5.092163   6.419713   6.663399
    14  H    4.808944   5.795755   5.964705   7.121891   7.257547
    15  H    4.718348   5.038648   4.912905   6.520623   6.907059
    16  H    4.763861   5.430413   5.464172   6.827879   7.084472
    17  C    5.092163   3.936621   4.299700   2.509019   2.691159
    18  H    5.464170   4.395715   4.763863   3.003658   3.096367
    19  H    5.964705   4.623094   4.808943   3.327561   3.641062
    20  H    4.912906   4.155912   4.718347   2.640315   2.432625
                   11         12         13         14         15
    11  C    0.000000
    12  H    1.070000   0.000000
    13  C    7.527056   7.563615   0.000000
    14  H    8.288501   8.395739   1.070000   0.000000
    15  H    7.509663   7.412555   1.070000   1.747303   0.000000
    16  H    7.908675   7.919418   1.070000   1.747303   1.747303
    17  C    1.540000   2.272510   8.917331   9.626006   8.964139
    18  H    2.148263   2.790944   9.300962  10.045954   9.413661
    19  H    2.148263   2.483995   9.626006  10.347623   9.576849
    20  H    2.148263   3.067328   8.964139   9.576849   9.081019
                   16         17         18         19         20
    16  H    0.000000
    17  C    9.300962   0.000000
    18  H    9.576849   1.070000   0.000000
    19  H   10.045955   1.070000   1.747303   0.000000
    20  H    9.413661   1.070000   1.747303   1.747303   0.000000
 Stoichiometry    C8H12
 Framework group  C1[X(C8H12)]
 Deg. of freedom    54
 Full point group                 C1      NOp   1
 Largest Abelian subgroup         C1      NOp   1
 Largest concise Abelian subgroup C1      NOp   1
                         Standard orientation:                         
 ---------------------------------------------------------------------
 Center     Atomic      Atomic             Coordinates (Angstroms)
 Number     Number       Type             X           Y           Z
 ---------------------------------------------------------------------
      1          6           0        3.066723   -0.479164    0.000000
      2          1           0        2.985987   -1.546114    0.000001
      3          6           0        1.947559    0.285060    0.000000
      4          1           0        2.028295    1.352010   -0.000002
      5          6           0        0.559582   -0.382112    0.000000
      6          1           0        0.478846   -1.449062    0.000001
      7          6           0       -0.559582    0.382112   -0.000002
      8          1           0       -0.478846    1.449062   -0.000004
      9          6           0       -1.947559   -0.285060   -0.000001
     10          1           0       -2.028295   -1.352010   -0.000002
     11          6           0       -3.066723    0.479164    0.000002
     12          1           0       -2.985987    1.546114    0.000005
     13          6           0        4.454700    0.188009    0.000000
     14          1           0        5.154649   -0.444881   -0.504402
     15          1           0        4.397667    1.129935   -0.504403
     16          1           0        4.776158    0.342527    1.008806
     17          6           0       -4.454700   -0.188009    0.000000
     18          1           0       -4.776158   -0.342530    1.008805
     19          1           0       -5.154649    0.444882   -0.504401
     20          1           0       -4.397667   -1.129933   -0.504406
 ---------------------------------------------------------------------
 Rotational constants (GHZ):     16.3969637      0.5216218      0.5086709
 Leave Link  202 at Mon Jun 07 14:53:10 2021, MaxMem=    33554432 cpu:         0.0
 (Enter C:\G09W\l301.exe)
 Standard basis: 6-31G(d) (6D, 7F)
 Ernie: Thresh=  0.10000D-02 Tol=  0.10000D-05 Strict=F.
 There are   144 symmetry adapted cartesian basis functions of A   symmetry.
 There are   144 symmetry adapted basis functions of A   symmetry.
   144 basis functions,   272 primitive gaussians,   144 cartesian basis functions
    30 alpha electrons       30 beta electrons
       nuclear repulsion energy       310.0463376879 Hartrees.
 IExCor=  402 DFT=T Ex+Corr=B3LYP ExCW=0 ScaHFX=  0.200000
 ScaDFX=  0.800000  0.720000  1.000000  0.810000 ScalE2=  1.000000  1.000000
 IRadAn=      5 IRanWt=     -1 IRanGd=            0 ICorTp=0 IEmpDi=  4
 NAtoms=   20 NActive=   20 NUniq=   20 SFac= 1.00D+00 NAtFMM=   60 NAOKFM=F Big=F
 Integral buffers will be    131072 words long.
 Raffenetti 2 integral format.
 Two-electron integral symmetry is turned on.
 Leave Link  301 at Mon Jun 07 14:53:10 2021, MaxMem=    33554432 cpu:         0.0
 (Enter C:\G09W\l302.exe)
 NPDir=0 NMtPBC=     1 NCelOv=     1 NCel=       1 NClECP=     1 NCelD=      1
         NCelK=      1 NCelE2=     1 NClLst=     1 CellRange=     0.0.
 One-electron integrals computed using PRISM.
 NBasis=   144 RedAO= T EigKep=  2.55D-03  NBF=   144
 NBsUse=   144 1.00D-06 EigRej= -1.00D+00 NBFU=   144
 Precomputing XC quadrature grid using
 IXCGrd= 4 IRadAn=           5 IRanWt=          -1 IRanGd=           0 AccXCQ= 0.00D+00.
 Generated NRdTot=       0 NPtTot=           0 NUsed=           0 NTot=          32
 NSgBfM=   143   143   143   143   143 MxSgAt=    20 MxSgA2=    20.
 Leave Link  302 at Mon Jun 07 14:53:11 2021, MaxMem=    33554432 cpu:         0.0
 (Enter C:\G09W\l303.exe)
 DipDrv:  MaxL=1.
 Leave Link  303 at Mon Jun 07 14:53:11 2021, MaxMem=    33554432 cpu:         0.0
 (Enter C:\G09W\l401.exe)
 ExpMin= 1.61D-01 ExpMax= 3.05D+03 ExpMxC= 4.57D+02 IAcc=3 IRadAn=         5 AccDes= 0.00D+00
 Harris functional with IExCor=  402 and IRadAn=       5 diagonalized for initial guess.
 HarFok:  IExCor=  402 AccDes= 0.00D+00 IRadAn=         5 IDoV= 1 UseB2=F ITyADJ=14
 ICtDFT=  3500011 ScaDFX=  1.000000  1.000000  1.000000  1.000000
 FoFCou: FMM=F IPFlag=           0 FMFlag=      100000 FMFlg1=           0
         NFxFlg=           0 DoJE=T BraDBF=F KetDBF=T FulRan=T
         wScrn=  0.000000 ICntrl=     500 IOpCl=  0 I1Cent=   200000004 NGrid=           0
         NMat0=    1 NMatS0=      1 NMatT0=    0 NMatD0=    1 NMtDS0=    0 NMtDT0=    0
 Petite list used in FoFCou.
 Harris En= -312.101764762376    
 JPrj=0 DoOrth=F DoCkMO=F.
 Leave Link  401 at Mon Jun 07 14:53:19 2021, MaxMem=    33554432 cpu:         8.0
 (Enter C:\G09W\l502.exe)
 Closed shell SCF:
 Using DIIS extrapolation, IDIIS=  1040.
 Integral symmetry usage will be decided dynamically.
 IVT=       82726 IEndB=       82726 NGot=    33554432 MDV=    33509227
 LenX=    33509227 LenY=    33488050
 Requested convergence on RMS density matrix=1.00D-08 within 128 cycles.
 Requested convergence on MAX density matrix=1.00D-06.
 Requested convergence on             energy=1.00D-06.
 No special actions if energy rises.
 Fock matrices will be formed incrementally for  20 cycles.
 Integral accuracy reduced to 1.0D-05 until final iterations.

 Cycle   1  Pass 0  IDiag  1:
 FoFJK:  IHMeth= 1 ICntrl=       0 DoSepK=F KAlg= 0 I1Cent=   0 FoldK=F
 IRaf= 830000000 NMat=   1 IRICut=       1 DoRegI=T DoRafI=F ISym2E= 0.
 FoFCou: FMM=F IPFlag=           0 FMFlag=      100000 FMFlg1=           0
         NFxFlg=           0 DoJE=F BraDBF=F KetDBF=F FulRan=T
         wScrn=  0.000000 ICntrl=       0 IOpCl=  0 I1Cent=           0 NGrid=           0
         NMat0=    1 NMatS0=      1 NMatT0=    0 NMatD0=    1 NMtDS0=    0 NMtDT0=    0
 Symmetry not used in FoFCou.
 E= -311.753120177179    
 DIIS: error= 4.70D-02 at cycle   1 NSaved=   1.
 NSaved= 1 IEnMin= 1 EnMin= -311.753120177179     IErMin= 1 ErrMin= 4.70D-02
 ErrMax= 4.70D-02  0.00D+00 EMaxC= 1.00D-01 BMatC= 2.32D-01 BMatP= 2.32D-01
 IDIUse=3 WtCom= 5.30D-01 WtEn= 4.70D-01
 Coeff-Com:  0.100D+01
 Coeff-En:   0.100D+01
 Coeff:      0.100D+01
 Gap=     0.170 Goal=   None    Shift=    0.000
 GapD=    0.170 DampG=1.000 DampE=0.500 DampFc=0.5000 IDamp=-1.
 Damping current iteration by 5.00D-01
 RMSDP=7.16D-03 MaxDP=1.36D-01              OVMax= 1.62D-01

 Cycle   2  Pass 0  IDiag  1:
 RMSU=  3.49D-03    CP:  9.70D-01
 E= -311.884383137625     Delta-E=       -0.131262960445 Rises=F Damp=T
 DIIS: error= 7.72D-03 at cycle   2 NSaved=   2.
 NSaved= 2 IEnMin= 2 EnMin= -311.884383137625     IErMin= 2 ErrMin= 7.72D-03
 ErrMax= 7.72D-03  0.00D+00 EMaxC= 1.00D-01 BMatC= 8.17D-03 BMatP= 2.32D-01
 IDIUse=3 WtCom= 9.23D-01 WtEn= 7.72D-02
 Coeff-Com: -0.200D-01 0.102D+01
 Coeff-En:   0.000D+00 0.100D+01
 Coeff:     -0.185D-01 0.102D+01
 Gap=     0.173 Goal=   None    Shift=    0.000
 RMSDP=1.07D-03 MaxDP=1.42D-02 DE=-1.31D-01 OVMax= 8.63D-02

 Cycle   3  Pass 0  IDiag  1:
 RMSU=  1.06D-03    CP:  9.66D-01  9.63D-01
 E= -312.014848449573     Delta-E=       -0.130465311948 Rises=F Damp=F
 DIIS: error= 2.43D-03 at cycle   3 NSaved=   3.
 NSaved= 3 IEnMin= 3 EnMin= -312.014848449573     IErMin= 3 ErrMin= 2.43D-03
 ErrMax= 2.43D-03  0.00D+00 EMaxC= 1.00D-01 BMatC= 1.17D-03 BMatP= 8.17D-03
 IDIUse=3 WtCom= 9.76D-01 WtEn= 2.43D-02
 Coeff-Com: -0.246D-01 0.223D+00 0.802D+00
 Coeff-En:   0.000D+00 0.000D+00 0.100D+01
 Coeff:     -0.240D-01 0.217D+00 0.807D+00
 Gap=     0.173 Goal=   None    Shift=    0.000
 RMSDP=4.34D-04 MaxDP=6.49D-03 DE=-1.30D-01 OVMax= 2.12D-02

 Cycle   4  Pass 0  IDiag  1:
 RMSU=  4.11D-04    CP:  9.66D-01  9.67D-01  8.69D-01
 E= -312.014950634497     Delta-E=       -0.000102184924 Rises=F Damp=F
 DIIS: error= 3.34D-03 at cycle   4 NSaved=   4.
 NSaved= 4 IEnMin= 4 EnMin= -312.014950634497     IErMin= 3 ErrMin= 2.43D-03
 ErrMax= 3.34D-03  0.00D+00 EMaxC= 1.00D-01 BMatC= 9.58D-04 BMatP= 1.17D-03
 IDIUse=3 WtCom= 9.67D-01 WtEn= 3.34D-02
 Coeff-Com: -0.116D-01 0.607D-01 0.491D+00 0.460D+00
 Coeff-En:   0.000D+00 0.000D+00 0.480D+00 0.520D+00
 Coeff:     -0.112D-01 0.587D-01 0.491D+00 0.462D+00
 Gap=     0.173 Goal=   None    Shift=    0.000
 RMSDP=2.74D-04 MaxDP=5.87D-03 DE=-1.02D-04 OVMax= 1.64D-02

 Cycle   5  Pass 0  IDiag  1:
 RMSU=  1.04D-04    CP:  9.66D-01  9.76D-01  9.10D-01  3.97D-01
 E= -312.015958752090     Delta-E=       -0.001008117594 Rises=F Damp=F
 DIIS: error= 8.04D-04 at cycle   5 NSaved=   5.
 NSaved= 5 IEnMin= 5 EnMin= -312.015958752090     IErMin= 5 ErrMin= 8.04D-04
 ErrMax= 8.04D-04  0.00D+00 EMaxC= 1.00D-01 BMatC= 7.77D-05 BMatP= 9.58D-04
 IDIUse=3 WtCom= 9.92D-01 WtEn= 8.04D-03
 Coeff-Com: -0.412D-02 0.146D-01 0.216D+00 0.279D+00 0.495D+00
 Coeff-En:   0.000D+00 0.000D+00 0.000D+00 0.134D-01 0.987D+00
 Coeff:     -0.409D-02 0.145D-01 0.214D+00 0.277D+00 0.499D+00
 Gap=     0.173 Goal=   None    Shift=    0.000
 RMSDP=6.15D-05 MaxDP=2.02D-03 DE=-1.01D-03 OVMax= 3.99D-03

 Cycle   6  Pass 0  IDiag  1:
 RMSU=  3.08D-05    CP:  9.66D-01  9.76D-01  9.09D-01  4.67D-01  5.69D-01
 E= -312.016038545088     Delta-E=       -0.000079792997 Rises=F Damp=F
 DIIS: error= 1.15D-04 at cycle   6 NSaved=   6.
 NSaved= 6 IEnMin= 6 EnMin= -312.016038545088     IErMin= 6 ErrMin= 1.15D-04
 ErrMax= 1.15D-04  0.00D+00 EMaxC= 1.00D-01 BMatC= 3.39D-06 BMatP= 7.77D-05
 IDIUse=3 WtCom= 9.99D-01 WtEn= 1.15D-03
 Coeff-Com: -0.750D-03 0.895D-03 0.541D-01 0.908D-01 0.239D+00 0.616D+00
 Coeff-En:   0.000D+00 0.000D+00 0.000D+00 0.000D+00 0.000D+00 0.100D+01
 Coeff:     -0.749D-03 0.894D-03 0.541D-01 0.907D-01 0.239D+00 0.616D+00
 Gap=     0.173 Goal=   None    Shift=    0.000
 RMSDP=1.26D-05 MaxDP=2.34D-04 DE=-7.98D-05 OVMax= 3.88D-04

 Cycle   7  Pass 0  IDiag  1:
 RMSU=  4.59D-06    CP:  9.66D-01  9.75D-01  9.12D-01  4.76D-01  6.00D-01
                    CP:  6.82D-01
 E= -312.016041902689     Delta-E=       -0.000003357602 Rises=F Damp=F
 DIIS: error= 1.31D-05 at cycle   7 NSaved=   7.
 NSaved= 7 IEnMin= 7 EnMin= -312.016041902689     IErMin= 7 ErrMin= 1.31D-05
 ErrMax= 1.31D-05  0.00D+00 EMaxC= 1.00D-01 BMatC= 3.44D-08 BMatP= 3.39D-06
 IDIUse=1 WtCom= 1.00D+00 WtEn= 0.00D+00
 Coeff-Com: -0.131D-03-0.870D-04 0.122D-01 0.221D-01 0.637D-01 0.189D+00
 Coeff-Com:  0.713D+00
 Coeff:     -0.131D-03-0.870D-04 0.122D-01 0.221D-01 0.637D-01 0.189D+00
 Coeff:      0.713D+00
 Gap=     0.173 Goal=   None    Shift=    0.000
 RMSDP=1.80D-06 MaxDP=3.37D-05 DE=-3.36D-06 OVMax= 7.56D-05

 Initial convergence to 1.0D-05 achieved.  Increase integral accuracy.
 Cycle   8  Pass 1  IDiag  1:
 E= -312.016032470943     Delta-E=        0.000009431746 Rises=F Damp=F
 DIIS: error= 1.79D-05 at cycle   1 NSaved=   1.
 NSaved= 1 IEnMin= 1 EnMin= -312.016032470943     IErMin= 1 ErrMin= 1.79D-05
 ErrMax= 1.79D-05  0.00D+00 EMaxC= 1.00D-01 BMatC= 2.52D-08 BMatP= 2.52D-08
 IDIUse=1 WtCom= 1.00D+00 WtEn= 0.00D+00
 Coeff-Com:  0.100D+01
 Coeff:      0.100D+01
 Gap=     0.173 Goal=   None    Shift=    0.000
 RMSDP=1.80D-06 MaxDP=3.37D-05 DE= 9.43D-06 OVMax= 6.29D-05

 Cycle   9  Pass 1  IDiag  1:
 RMSU=  3.95D-06    CP:  1.00D+00
 E= -312.016032471775     Delta-E=       -0.000000000832 Rises=F Damp=F
 DIIS: error= 9.59D-06 at cycle   2 NSaved=   2.
 NSaved= 2 IEnMin= 2 EnMin= -312.016032471775     IErMin= 2 ErrMin= 9.59D-06
 ErrMax= 9.59D-06  0.00D+00 EMaxC= 1.00D-01 BMatC= 1.66D-08 BMatP= 2.52D-08
 IDIUse=1 WtCom= 1.00D+00 WtEn= 0.00D+00
 Coeff-Com:  0.436D+00 0.564D+00
 Coeff:      0.436D+00 0.564D+00
 Gap=     0.173 Goal=   None    Shift=    0.000
 RMSDP=1.06D-06 MaxDP=2.12D-05 DE=-8.32D-10 OVMax= 4.14D-05

 Cycle  10  Pass 1  IDiag  1:
 RMSU=  1.01D-06    CP:  1.00D+00  9.18D-01
 E= -312.016032486837     Delta-E=       -0.000000015062 Rises=F Damp=F
 DIIS: error= 3.08D-06 at cycle   3 NSaved=   3.
 NSaved= 3 IEnMin= 3 EnMin= -312.016032486837     IErMin= 3 ErrMin= 3.08D-06
 ErrMax= 3.08D-06  0.00D+00 EMaxC= 1.00D-01 BMatC= 1.66D-09 BMatP= 1.66D-08
 IDIUse=1 WtCom= 1.00D+00 WtEn= 0.00D+00
 Coeff-Com: -0.529D-03 0.239D+00 0.761D+00
 Coeff:     -0.529D-03 0.239D+00 0.761D+00
 Gap=     0.173 Goal=   None    Shift=    0.000
 RMSDP=2.56D-07 MaxDP=5.50D-06 DE=-1.51D-08 OVMax= 1.11D-05

 Cycle  11  Pass 1  IDiag  1:
 RMSU=  7.00D-08    CP:  1.00D+00  9.45D-01  7.79D-01
 E= -312.016032488509     Delta-E=       -0.000000001672 Rises=F Damp=F
 DIIS: error= 2.05D-07 at cycle   4 NSaved=   4.
 NSaved= 4 IEnMin= 4 EnMin= -312.016032488509     IErMin= 4 ErrMin= 2.05D-07
 ErrMax= 2.05D-07  0.00D+00 EMaxC= 1.00D-01 BMatC= 1.47D-11 BMatP= 1.66D-09
 IDIUse=1 WtCom= 1.00D+00 WtEn= 0.00D+00
 Coeff-Com: -0.176D-02 0.117D+00 0.378D+00 0.507D+00
 Coeff:     -0.176D-02 0.117D+00 0.378D+00 0.507D+00
 Gap=     0.173 Goal=   None    Shift=    0.000
 RMSDP=2.85D-08 MaxDP=6.10D-07 DE=-1.67D-09 OVMax= 9.56D-07

 Cycle  12  Pass 1  IDiag  1:
 RMSU=  1.80D-08    CP:  1.00D+00  9.46D-01  7.79D-01  6.88D-01
 E= -312.016032488532     Delta-E=       -0.000000000024 Rises=F Damp=F
 DIIS: error= 9.64D-08 at cycle   5 NSaved=   5.
 NSaved= 5 IEnMin= 5 EnMin= -312.016032488532     IErMin= 5 ErrMin= 9.64D-08
 ErrMax= 9.64D-08  0.00D+00 EMaxC= 1.00D-01 BMatC= 6.86D-13 BMatP= 1.47D-11
 IDIUse=1 WtCom= 1.00D+00 WtEn= 0.00D+00
 Coeff-Com: -0.673D-03 0.346D-01 0.113D+00 0.226D+00 0.627D+00
 Coeff:     -0.673D-03 0.346D-01 0.113D+00 0.226D+00 0.627D+00
 Gap=     0.173 Goal=   None    Shift=    0.000
 RMSDP=8.28D-09 MaxDP=2.35D-07 DE=-2.39D-11 OVMax= 6.77D-07

 SCF Done:  E(RB3LYP) =  -312.016032489     A.U. after   12 cycles
            NFock= 12  Conv=0.83D-08     -V/T= 2.0104
 KE= 3.088152263108D+02 PE=-1.341281276592D+03 EE= 4.104036801043D+02
 Leave Link  502 at Mon Jun 07 14:54:40 2021, MaxMem=    33554432 cpu:        81.0
 (Enter C:\G09W\l601.exe)
 Copying SCF densities to generalized density rwf, IOpCl= 0 IROHF=0.

 **********************************************************************

            Population analysis using the SCF density.

 **********************************************************************

 Orbital symmetries:
       Occupied  (A) (A) (A) (A) (A) (A) (A) (A) (A) (A) (A) (A)
                 (A) (A) (A) (A) (A) (A) (A) (A) (A) (A) (A) (A)
                 (A) (A) (A) (A) (A) (A)
       Virtual   (A) (A) (A) (A) (A) (A) (A) (A) (A) (A) (A) (A)
                 (A) (A) (A) (A) (A) (A) (A) (A) (A) (A) (A) (A)
                 (A) (A) (A) (A) (A) (A) (A) (A) (A) (A) (A) (A)
                 (A) (A) (A) (A) (A) (A) (A) (A) (A) (A) (A) (A)
                 (A) (A) (A) (A) (A) (A) (A) (A) (A) (A) (A) (A)
                 (A) (A) (A) (A) (A) (A) (A) (A) (A) (A) (A) (A)
                 (A) (A) (A) (A) (A) (A) (A) (A) (A) (A) (A) (A)
                 (A) (A) (A) (A) (A) (A) (A) (A) (A) (A) (A) (A)
                 (A) (A) (A) (A) (A) (A) (A) (A) (A) (A) (A) (A)
                 (A) (A) (A) (A) (A) (A)
 The electronic state is 1-A.
 Alpha  occ. eigenvalues --  -10.18606 -10.18532 -10.18449 -10.18449 -10.18339
 Alpha  occ. eigenvalues --  -10.18339 -10.17284 -10.17284  -0.80116  -0.78126
 Alpha  occ. eigenvalues --   -0.74625  -0.69109  -0.65581  -0.56542  -0.55678
 Alpha  occ. eigenvalues --   -0.54545  -0.46491  -0.43988  -0.42541  -0.41475
 Alpha  occ. eigenvalues --   -0.41467  -0.40544  -0.37458  -0.37352  -0.36460
 Alpha  occ. eigenvalues --   -0.35305  -0.31838  -0.31254  -0.26038  -0.19580
 Alpha virt. eigenvalues --   -0.02304   0.04624   0.08958   0.10906   0.12282
 Alpha virt. eigenvalues --    0.12308   0.13833   0.15196   0.15313   0.16712
 Alpha virt. eigenvalues --    0.17596   0.19076   0.19320   0.20089   0.21139
 Alpha virt. eigenvalues --    0.22520   0.26203   0.32062   0.33856   0.34470
 Alpha virt. eigenvalues --    0.40138   0.41136   0.49156   0.49818   0.53339
 Alpha virt. eigenvalues --    0.54635   0.55008   0.56738   0.57502   0.58633
 Alpha virt. eigenvalues --    0.58987   0.61590   0.61663   0.63780   0.65744
 Alpha virt. eigenvalues --    0.66302   0.69866   0.73685   0.74436   0.75686
 Alpha virt. eigenvalues --    0.76982   0.77307   0.84610   0.87945   0.88455
 Alpha virt. eigenvalues --    0.89050   0.89730   0.90855   0.90890   0.91565
 Alpha virt. eigenvalues --    0.92751   0.93445   0.97152   0.97285   0.99645
 Alpha virt. eigenvalues --    0.99673   1.05388   1.07740   1.12781   1.16857
 Alpha virt. eigenvalues --    1.22292   1.26447   1.33922   1.35284   1.36112
 Alpha virt. eigenvalues --    1.37044   1.38057   1.42076   1.43808   1.45403
 Alpha virt. eigenvalues --    1.51603   1.59390   1.67291   1.76572   1.78088
 Alpha virt. eigenvalues --    1.78955   1.79514   1.89247   1.89345   1.93241
 Alpha virt. eigenvalues --    2.01276   2.02491   2.02879   2.08176   2.11364
 Alpha virt. eigenvalues --    2.14423   2.16808   2.22616   2.25986   2.26076
 Alpha virt. eigenvalues --    2.27481   2.31953   2.32649   2.35509   2.38284
 Alpha virt. eigenvalues --    2.42783   2.44901   2.45596   2.55581   2.64940
 Alpha virt. eigenvalues --    2.71681   2.80261   2.85524   2.87839   3.00084
 Alpha virt. eigenvalues --    3.01145   4.06874   4.09579   4.14407   4.17453
 Alpha virt. eigenvalues --    4.27662   4.34159   4.42913   4.51153
          Condensed to atoms (all electrons):
               1          2          3          4          5          6
     1  C    4.927577   0.369116   0.643234  -0.055121  -0.020279  -0.003749
     2  H    0.369116   0.594373  -0.044511   0.006348  -0.009943   0.004081
     3  C    0.643234  -0.044511   4.853710   0.364781   0.397122  -0.044803
     4  H   -0.055121   0.006348   0.364781   0.606085  -0.044714   0.003735
     5  C   -0.020279  -0.009943   0.397122  -0.044714   4.916973   0.365343
     6  H   -0.003749   0.004081  -0.044803   0.003735   0.365343   0.601754
     7  C    0.001887   0.000508  -0.016356  -0.003561   0.594126  -0.053480
     8  H    0.000415   0.000014  -0.008440   0.003985  -0.053480   0.006140
     9  C   -0.000177  -0.000005   0.003180   0.000126  -0.016356  -0.008440
    10  H   -0.000003   0.000001   0.000126   0.000004  -0.003561   0.003985
    11  C    0.000003   0.000000  -0.000177  -0.000003   0.001887   0.000415
    12  H    0.000000   0.000000  -0.000005   0.000001   0.000508   0.000014
    13  C    0.356446  -0.052103  -0.027840  -0.009255   0.003898   0.000049
    14  H   -0.027133  -0.002703   0.002421   0.000126  -0.000134   0.000002
    15  H   -0.033659   0.003965  -0.007122   0.005003   0.000145   0.000005
    16  H   -0.032280   0.002074  -0.005247   0.000560  -0.000070   0.000000
    17  C    0.000000   0.000000   0.000001   0.000000  -0.000186  -0.000007
    18  H    0.000000   0.000000   0.000000   0.000000   0.000007   0.000000
    19  H    0.000000   0.000000   0.000000   0.000000   0.000002   0.000000
    20  H    0.000000   0.000000   0.000000   0.000000   0.000007   0.000000
               7          8          9         10         11         12
     1  C    0.001887   0.000415  -0.000177  -0.000003   0.000003   0.000000
     2  H    0.000508   0.000014  -0.000005   0.000001   0.000000   0.000000
     3  C   -0.016356  -0.008440   0.003180   0.000126  -0.000177  -0.000005
     4  H   -0.003561   0.003985   0.000126   0.000004  -0.000003   0.000001
     5  C    0.594126  -0.053480  -0.016356  -0.003561   0.001887   0.000508
     6  H   -0.053480   0.006140  -0.008440   0.003985   0.000415   0.000014
     7  C    4.916973   0.365343   0.397122  -0.044714  -0.020279  -0.009943
     8  H    0.365343   0.601754  -0.044803   0.003735  -0.003749   0.004081
     9  C    0.397122  -0.044803   4.853710   0.364781   0.643234  -0.044511
    10  H   -0.044714   0.003735   0.364781   0.606085  -0.055121   0.006348
    11  C   -0.020279  -0.003749   0.643234  -0.055121   4.927577   0.369116
    12  H   -0.009943   0.004081  -0.044511   0.006348   0.369116   0.594373
    13  C   -0.000186  -0.000007   0.000001   0.000000   0.000000   0.000000
    14  H    0.000002   0.000000   0.000000   0.000000   0.000000   0.000000
    15  H    0.000007   0.000000   0.000000   0.000000   0.000000   0.000000
    16  H    0.000007   0.000000   0.000000   0.000000   0.000000   0.000000
    17  C    0.003898   0.000049  -0.027840  -0.009255   0.356446  -0.052103
    18  H   -0.000070   0.000000  -0.005247   0.000560  -0.032280   0.002074
    19  H   -0.000134   0.000002   0.002421   0.000126  -0.027133  -0.002703
    20  H    0.000144   0.000005  -0.007122   0.005003  -0.033659   0.003965
              13         14         15         16         17         18
     1  C    0.356446  -0.027133  -0.033659  -0.032280   0.000000   0.000000
     2  H   -0.052103  -0.002703   0.003965   0.002074   0.000000   0.000000
     3  C   -0.027840   0.002421  -0.007122  -0.005247   0.000001   0.000000
     4  H   -0.009255   0.000126   0.005003   0.000560   0.000000   0.000000
     5  C    0.003898  -0.000134   0.000145  -0.000070  -0.000186   0.000007
     6  H    0.000049   0.000002   0.000005   0.000000  -0.000007   0.000000
     7  C   -0.000186   0.000002   0.000007   0.000007   0.003898  -0.000070
     8  H   -0.000007   0.000000   0.000000   0.000000   0.000049   0.000000
     9  C    0.000001   0.000000   0.000000   0.000000  -0.027840  -0.005247
    10  H    0.000000   0.000000   0.000000   0.000000  -0.009255   0.000560
    11  C    0.000000   0.000000   0.000000   0.000000   0.356446  -0.032280
    12  H    0.000000   0.000000   0.000000   0.000000  -0.052103   0.002074
    13  C    5.089182   0.371939   0.381242   0.374234   0.000000   0.000000
    14  H    0.371939   0.562830  -0.028620  -0.032164   0.000000   0.000000
    15  H    0.381242  -0.028620   0.548045  -0.028719   0.000000   0.000000
    16  H    0.374234  -0.032164  -0.028719   0.555130   0.000000   0.000000
    17  C    0.000000   0.000000   0.000000   0.000000   5.089182   0.374234
    18  H    0.000000   0.000000   0.000000   0.000000   0.374234   0.555130
    19  H    0.000000   0.000000   0.000000   0.000000   0.371940  -0.032164
    20  H    0.000000   0.000000   0.000000   0.000000   0.381242  -0.028719
              19         20
     1  C    0.000000   0.000000
     2  H    0.000000   0.000000
     3  C    0.000000   0.000000
     4  H    0.000000   0.000000
     5  C    0.000002   0.000007
     6  H    0.000000   0.000000
     7  C   -0.000134   0.000144
     8  H    0.000002   0.000005
     9  C    0.002421  -0.007122
    10  H    0.000126   0.005003
    11  C   -0.027133  -0.033659
    12  H   -0.002703   0.003965
    13  C    0.000000   0.000000
    14  H    0.000000   0.000000
    15  H    0.000000   0.000000
    16  H    0.000000   0.000000
    17  C    0.371940   0.381242
    18  H   -0.032164  -0.028719
    19  H    0.562830  -0.028620
    20  H   -0.028620   0.548045
 Mulliken charges:
               1
     1  C   -0.126279
     2  H    0.128783
     3  C   -0.110075
     4  H    0.121896
     5  C   -0.131294
     6  H    0.124955
     7  C   -0.131294
     8  H    0.124955
     9  C   -0.110075
    10  H    0.121896
    11  C   -0.126279
    12  H    0.128783
    13  C   -0.487600
    14  H    0.153431
    15  H    0.159709
    16  H    0.166473
    17  C   -0.487600
    18  H    0.166473
    19  H    0.153431
    20  H    0.159709
 Sum of Mulliken charges =   0.00000
 Mulliken charges with hydrogens summed into heavy atoms:
               1
     1  C    0.002504
     3  C    0.011821
     5  C   -0.006339
     7  C   -0.006339
     9  C    0.011821
    11  C    0.002504
    13  C   -0.007987
    17  C   -0.007987
 Electronic spatial extent (au):  <R**2>=           2209.5565
 Charge=              0.0000 electrons
 Dipole moment (field-independent basis, Debye):
    X=              0.0000    Y=              0.0000    Z=              0.0613  Tot=              0.0613
 Quadrupole moment (field-independent basis, Debye-Ang):
   XX=            -43.9920   YY=            -45.5192   ZZ=            -53.3064
   XY=             -0.1174   XZ=              0.0000   YZ=              0.0000
 Traceless Quadrupole moment (field-independent basis, Debye-Ang):
   XX=              3.6139   YY=              2.0867   ZZ=             -5.7005
   XY=             -0.1174   XZ=              0.0000   YZ=              0.0000
 Octapole moment (field-independent basis, Debye-Ang**2):
  XXX=              0.0000  YYY=              0.0000  ZZZ=              1.1099  XYY=              0.0000
  XXY=              0.0000  XXZ=              0.7315  XZZ=              0.0000  YZZ=              0.0000
  YYZ=             -0.8040  XYZ=              0.3823
 Hexadecapole moment (field-independent basis, Debye-Ang**3):
 XXXX=          -2721.3370 YYYY=           -137.6384 ZZZZ=            -67.8695 XXXY=            -18.4374
 XXXZ=              0.0000 YYYX=             -1.6839 YYYZ=              0.0000 ZZZX=              0.0000
 ZZZY=              0.0000 XXYY=           -474.0483 XXZZ=           -487.0118 YYZZ=            -37.1615
 XXYZ=              0.0000 YYXZ=              0.0000 ZZXY=              2.8486
 N-N= 3.100463376879D+02 E-N=-1.341281271918D+03  KE= 3.088152263108D+02
 No NMR shielding tensors so no spin-rotation constants.
 Leave Link  601 at Mon Jun 07 14:54:40 2021, MaxMem=    33554432 cpu:         0.0
 (Enter C:\G09W\l701.exe)
 Compute integral first derivatives.
 ... and contract with generalized density number  0.
 Leave Link  701 at Mon Jun 07 14:54:41 2021, MaxMem=    33554432 cpu:         1.0
 (Enter C:\G09W\l702.exe)
 L702 exits ... SP integral derivatives will be done elsewhere.
 Leave Link  702 at Mon Jun 07 14:54:41 2021, MaxMem=    33554432 cpu:         0.0
 (Enter C:\G09W\l703.exe)
 Compute integral first derivatives, UseDBF=F ICtDFT=           0.
 Integral derivatives from FoFJK, PRISM(SPDF).
 Calling FoFJK, ICntrl=      2127 FMM=F ISym2X=0 I1Cent= 0 IOpClX= 0 NMat=1 NMatS=1 NMatT=0.
 FoFJK:  IHMeth= 1 ICntrl=    2127 DoSepK=F KAlg= 0 I1Cent=   0 FoldK=F
 IRaf=         0 NMat=   1 IRICut=       1 DoRegI=T DoRafI=F ISym2E= 0.
 FoFCou: FMM=F IPFlag=           0 FMFlag=      100000 FMFlg1=         800
         NFxFlg=           0 DoJE=F BraDBF=F KetDBF=F FulRan=T
         wScrn=  0.000000 ICntrl=    2127 IOpCl=  0 I1Cent=           0 NGrid=           0
         NMat0=    1 NMatS0=      1 NMatT0=    0 NMatD0=    1 NMtDS0=    0 NMtDT0=    0
 Symmetry not used in FoFCou.
 Leave Link  703 at Mon Jun 07 14:54:59 2021, MaxMem=    33554432 cpu:        18.0
 (Enter C:\G09W\l716.exe)
 Dipole        =-1.36128772D-07-5.58925630D-08 2.41302719D-02
 ***** Axes restored to original set *****
 -------------------------------------------------------------------
 Center     Atomic                   Forces (Hartrees/Bohr)
 Number     Number              X              Y              Z
 -------------------------------------------------------------------
      1        6           0.042133604   -0.000203281   -0.003529997
      2        1          -0.012460493   -0.002171843    0.001552938
      3        6          -0.065036345    0.021414635    0.004000250
      4        1           0.012386117    0.005184910   -0.001015228
      5        6           0.059848231   -0.025560786   -0.003883279
      6        1          -0.011974152   -0.005160255    0.000447569
      7        6          -0.059795622    0.025518658    0.004850498
      8        1           0.011976425    0.005158442   -0.000405923
      9        6           0.064985409   -0.021373860   -0.004936587
     10        1          -0.012447543   -0.005135725   -0.000113942
     11        6          -0.042266669    0.000309832    0.001083618
     12        1           0.012565471    0.002087781    0.000376961
     13        6          -0.025939601    0.030873182    0.000659158
     14        1          -0.006886046   -0.015093327   -0.007424351
     15        1           0.015080291    0.000043007   -0.007427247
     16        1           0.004527172   -0.010292529    0.015942719
     17        6           0.025712571   -0.030691407   -0.004832192
     18        1          -0.002725813    0.008850196    0.017171090
     19        1           0.006112817    0.015712440   -0.006789656
     20        1          -0.015795824    0.000529929   -0.005726399
 -------------------------------------------------------------------
 Cartesian Forces:  Max     0.065036345 RMS     0.021506753
 Leave Link  716 at Mon Jun 07 14:54:59 2021, MaxMem=    33554432 cpu:         0.0
 (Enter C:\G09W\l103.exe)

 GradGradGradGradGradGradGradGradGradGradGradGradGradGradGradGradGradGrad
 Berny optimization.
 FormGI is forming the generalized inverse of G from B-inverse, IUseBI=4.
 Internal  Forces:  Max     0.043897767 RMS     0.010624421
 Search for a local minimum.
 Step number   1 out of a maximum of   91
 All quantities printed in internal units (Hartrees-Bohrs-Radians)
 RMS Force = .10624D-01 SwitMx=.10000D-02 MixMth= 1
 Mixed Optimization -- RFO/linear search
 Second derivative matrix not updated -- first step.
 ITU=  0
     Eigenvalues ---    0.00237   0.00237   0.00237   0.00237   0.01215
     Eigenvalues ---    0.01215   0.01459   0.01459   0.01459   0.01459
     Eigenvalues ---    0.02681   0.02681   0.02681   0.07243   0.07243
     Eigenvalues ---    0.07243   0.07243   0.16000   0.16000   0.16000
     Eigenvalues ---    0.16000   0.16000   0.16000   0.16000   0.16000
     Eigenvalues ---    0.16000   0.16000   0.16000   0.16000   0.22000
     Eigenvalues ---    0.22000   0.22000   0.22000   0.22000   0.22000
     Eigenvalues ---    0.28519   0.28519   0.28519   0.28519   0.37230
     Eigenvalues ---    0.37230   0.37230   0.37230   0.37230   0.37230
     Eigenvalues ---    0.37230   0.37230   0.37230   0.37230   0.37230
     Eigenvalues ---    0.37230   0.53930   0.53930   0.53930
 RFO step:  Lambda=-2.91304794D-02 EMin= 2.36824022D-03
 Linear search not attempted -- first point.
 Maximum step size (   0.300) exceeded in Quadratic search.
    -- Step size scaled by   0.966
 Iteration  1 RMS(Cart)=  0.04062537 RMS(Int)=  0.00075963
 Iteration  2 RMS(Cart)=  0.00172337 RMS(Int)=  0.00007349
 Iteration  3 RMS(Cart)=  0.00000054 RMS(Int)=  0.00007349
 ITry= 1 IFail=0 DXMaxC= 1.59D-01 DCOld= 1.00D+10 DXMaxT= 3.00D-01 DXLimC= 3.00D+00 Rises=F
 Variable       Old X    -DE/DX   Delta X   Delta X   Delta X     New X
                                 (Linear)    (Quad)   (Total)
    R1        2.02201   0.01252   0.00000   0.03015   0.03015   2.05216
    R2        2.56096  -0.01099   0.00000  -0.01869  -0.01869   2.54227
    R3        2.91018  -0.01146   0.00000  -0.03523  -0.03523   2.87495
    R4        2.02201   0.01242   0.00000   0.02989   0.02989   2.05190
    R5        2.91018  -0.04390   0.00000  -0.13497  -0.13497   2.77521
    R6        2.02201   0.01197   0.00000   0.02883   0.02883   2.05083
    R7        2.56096  -0.00503   0.00000  -0.00854  -0.00854   2.55241
    R8        2.02201   0.01197   0.00000   0.02883   0.02883   2.05083
    R9        2.91018  -0.04390   0.00000  -0.13497  -0.13497   2.77521
   R10        2.02201   0.01242   0.00000   0.02989   0.02989   2.05190
   R11        2.56096  -0.01099   0.00000  -0.01869  -0.01869   2.54227
   R12        2.02201   0.01252   0.00000   0.03015   0.03015   2.05216
   R13        2.91018  -0.01146   0.00000  -0.03523  -0.03523   2.87495
   R14        2.02201   0.01760   0.00000   0.04236   0.04236   2.06437
   R15        2.02201   0.01659   0.00000   0.03994   0.03994   2.06195
   R16        2.02201   0.01902   0.00000   0.04580   0.04580   2.06780
   R17        2.02201   0.01902   0.00000   0.04580   0.04580   2.06780
   R18        2.02201   0.01760   0.00000   0.04236   0.04236   2.06437
   R19        2.02201   0.01659   0.00000   0.03994   0.03994   2.06195
    A1        2.09440  -0.00474   0.00000  -0.01570  -0.01571   2.07868
    A2        2.09440  -0.00908   0.00000  -0.03790  -0.03791   2.05649
    A3        2.09440   0.01382   0.00000   0.05360   0.05360   2.14799
    A4        2.09440  -0.00111   0.00000   0.00215   0.00215   2.09655
    A5        2.09440   0.01269   0.00000   0.04924   0.04924   2.14363
    A6        2.09440  -0.01158   0.00000  -0.05139  -0.05139   2.04301
    A7        2.09440  -0.01151   0.00000  -0.05110  -0.05110   2.04330
    A8        2.09440   0.01255   0.00000   0.04867   0.04867   2.14306
    A9        2.09440  -0.00104   0.00000   0.00243   0.00243   2.09682
   A10        2.09440  -0.00104   0.00000   0.00243   0.00243   2.09682
   A11        2.09440   0.01255   0.00000   0.04867   0.04867   2.14306
   A12        2.09440  -0.01151   0.00000  -0.05110  -0.05110   2.04330
   A13        2.09440  -0.01158   0.00000  -0.05139  -0.05139   2.04301
   A14        2.09440   0.01269   0.00000   0.04924   0.04924   2.14363
   A15        2.09440  -0.00111   0.00000   0.00215   0.00215   2.09655
   A16        2.09440  -0.00474   0.00000  -0.01570  -0.01571   2.07868
   A17        2.09440   0.01382   0.00000   0.05360   0.05360   2.14799
   A18        2.09440  -0.00908   0.00000  -0.03790  -0.03791   2.05649
   A19        1.91063   0.00511   0.00000   0.02627   0.02605   1.93669
   A20        1.91063   0.00202   0.00000   0.01101   0.01084   1.92147
   A21        1.91063   0.00407   0.00000   0.01996   0.01979   1.93042
   A22        1.91063  -0.00310   0.00000  -0.01421  -0.01441   1.89622
   A23        1.91063  -0.00498   0.00000  -0.02679  -0.02701   1.88362
   A24        1.91063  -0.00312   0.00000  -0.01624  -0.01636   1.89428
   A25        1.91063   0.00407   0.00000   0.01996   0.01979   1.93042
   A26        1.91063   0.00511   0.00000   0.02627   0.02605   1.93669
   A27        1.91063   0.00202   0.00000   0.01101   0.01084   1.92147
   A28        1.91063  -0.00498   0.00000  -0.02679  -0.02701   1.88362
   A29        1.91063  -0.00312   0.00000  -0.01624  -0.01636   1.89428
   A30        1.91063  -0.00310   0.00000  -0.01421  -0.01441   1.89622
    D1       -3.14159   0.00036   0.00000   0.00527   0.00524  -3.13635
    D2        0.00000   0.00038   0.00000   0.00568   0.00566   0.00566
    D3        0.00000   0.00068   0.00000   0.01269   0.01271   0.01272
    D4        3.14159   0.00070   0.00000   0.01310   0.01313  -3.12846
    D5        0.52360   0.00047   0.00000   0.02050   0.02049   0.54409
    D6        2.61799   0.00104   0.00000   0.02592   0.02594   2.64393
    D7       -1.57080   0.00094   0.00000   0.02500   0.02494  -1.54586
    D8       -2.61799   0.00015   0.00000   0.01307   0.01310  -2.60489
    D9       -0.52360   0.00072   0.00000   0.01850   0.01855  -0.50505
   D10        1.57080   0.00062   0.00000   0.01757   0.01755   1.58834
   D11        0.00000  -0.00001   0.00000  -0.00015  -0.00014  -0.00013
   D12       -3.14159   0.00003   0.00000   0.00080   0.00080  -3.14079
   D13        3.14159   0.00001   0.00000   0.00027   0.00027  -3.14132
   D14        0.00000   0.00005   0.00000   0.00122   0.00121   0.00121
   D15        0.00000  -0.00004   0.00000  -0.00076  -0.00076  -0.00075
   D16       -3.14159  -0.00009   0.00000  -0.00170  -0.00172   3.13988
   D17       -3.14159   0.00000   0.00000   0.00019   0.00021  -3.14138
   D18        0.00000  -0.00004   0.00000  -0.00076  -0.00076  -0.00075
   D19        0.00000   0.00005   0.00000   0.00122   0.00121   0.00120
   D20        3.14159   0.00003   0.00000   0.00080   0.00080  -3.14080
   D21        3.14159   0.00001   0.00000   0.00027   0.00027  -3.14132
   D22        0.00000  -0.00001   0.00000  -0.00014  -0.00013  -0.00014
   D23        0.00000   0.00038   0.00000   0.00568   0.00566   0.00566
   D24        3.14159   0.00070   0.00000   0.01311   0.01314  -3.12846
   D25        3.14159   0.00036   0.00000   0.00527   0.00524  -3.13636
   D26        0.00000   0.00068   0.00000   0.01269   0.01272   0.01271
   D27        1.57080   0.00062   0.00000   0.01757   0.01755   1.58835
   D28       -2.61799   0.00015   0.00000   0.01307   0.01310  -2.60489
   D29       -0.52360   0.00072   0.00000   0.01850   0.01855  -0.50505
   D30       -1.57080   0.00094   0.00000   0.02500   0.02494  -1.54586
   D31        0.52360   0.00047   0.00000   0.02050   0.02049   0.54409
   D32        2.61799   0.00104   0.00000   0.02592   0.02594   2.64393
         Item               Value     Threshold  Converged?
 Maximum Force            0.043898     0.000015     NO 
 RMS     Force            0.010624     0.000010     NO 
 Maximum Displacement     0.158786     0.000060     NO 
 RMS     Displacement     0.041397     0.000040     NO 
 Predicted change in Energy=-1.594436D-02
 Lowest energy point so far.  Saving SCF results.
 GradGradGradGradGradGradGradGradGradGradGradGradGradGradGradGradGradGrad

 Leave Link  103 at Mon Jun 07 14:54:59 2021, MaxMem=    33554432 cpu:         0.0
 (Enter C:\G09W\l202.exe)
                          Input orientation:                          
 ---------------------------------------------------------------------
 Center     Atomic      Atomic             Coordinates (Angstroms)
 Number     Number       Type             X           Y           Z
 ---------------------------------------------------------------------
      1          6           0       -3.225203   -1.531696    0.020892
      2          1           0       -4.309687   -1.551854    0.073678
      3          6           0       -2.591218   -0.345276    0.038987
      4          1           0       -1.507618   -0.305540   -0.017870
      5          6           0       -3.302545    0.935972    0.134554
      6          1           0       -4.385579    0.896562    0.191658
      7          6           0       -2.665405    2.126808    0.151761
      8          1           0       -1.582382    2.166227    0.094462
      9          6           0       -3.376847    3.408148    0.245214
     10          1           0       -4.460408    3.368381    0.302789
     11          6           0       -2.742960    4.594647    0.261506
     12          1           0       -1.659054    4.615267    0.198108
     13          6           0       -2.493297   -2.862896   -0.061225
     14          1           0       -3.095216   -3.608122   -0.586304
     15          1           0       -1.548907   -2.739209   -0.593585
     16          1           0       -2.279984   -3.247520    0.940730
     17          6           0       -3.473168    5.924488    0.374835
     18          1           0       -3.574926    6.219790    1.423545
     19          1           0       -2.928133    6.715259   -0.145734
     20          1           0       -4.470220    5.842966   -0.060850
 ---------------------------------------------------------------------
                    Distance matrix (angstroms):
                    1          2          3          4          5
     1  C    0.000000
     2  H    1.085955   0.000000
     3  C    1.345310   2.100040   0.000000
     4  H    2.110701   3.068105   1.085818   0.000000
     5  C    2.471495   2.684645   1.468576   2.187772   0.000000
     6  H    2.696678   2.452431   2.187510   3.125957   1.085255
     7  C    3.703398   4.030175   2.475767   2.699178   1.350679
     8  H    4.047087   4.611155   2.707116   2.475448   2.115206
     9  C    4.947260   5.049874   3.840304   4.165899   2.475767
    10  H    5.061221   4.927872   4.165899   4.724351   2.699178
    11  C    6.150003   6.345816   4.947260   5.061221   3.703398
    12  H    6.345816   6.713770   5.049874   4.927872   4.030175
    13  C    1.521355   2.244171   2.521516   2.741078   3.889038
    14  H    2.167286   2.477652   3.360233   3.708184   4.605585
    15  H    2.155375   3.078468   2.686537   2.501179   4.136713
    16  H    2.164160   2.783300   3.055000   3.189154   4.381456
    17  C    7.468697   7.529020   6.340391   6.544528   4.997213
    18  H    7.885130   7.922149   6.781207   6.995096   5.445587
    19  H    8.253986   8.384628   7.070982   7.164205   5.798181
    20  H    7.479465   7.397785   6.467995   6.825173   5.047795
                    6          7          8          9         10
     6  H    0.000000
     7  C    2.115206   0.000000
     8  H    3.078866   1.085255   0.000000
     9  C    2.707116   1.468576   2.187510   0.000000
    10  H    2.475448   2.187772   3.125957   1.085818   0.000000
    11  C    4.047087   2.471495   2.696678   1.345310   2.110701
    12  H    4.611155   2.684645   2.452431   2.100040   3.068105
    13  C    4.216421   4.997213   5.113324   6.340391   6.544528
    14  H    4.749994   5.798181   6.007930   7.070982   7.164205
    15  H    4.677836   5.047795   4.953568   6.467995   6.825173
    16  H    4.708296   5.445587   5.523719   6.781207   6.995096
    17  C    5.113324   3.889038   4.216421   2.521516   2.741078
    18  H    5.523718   4.381456   4.708298   3.055000   3.189153
    19  H    6.007930   4.605585   4.749993   3.360233   3.708184
    20  H    4.953569   4.136713   4.677835   2.686537   2.501180
                   11         12         13         14         15
    11  C    0.000000
    12  H    1.085955   0.000000
    13  C    7.468697   7.529020   0.000000
    14  H    8.253986   8.384628   1.092417   0.000000
    15  H    7.479465   7.397785   1.091137   1.773734   0.000000
    16  H    7.885130   7.922149   1.094235   1.768182   1.773971
    17  C    1.521355   2.244171   8.852593   9.588393   8.927501
    18  H    2.164161   2.783300   9.266588  10.042782   9.404107
    19  H    2.167286   2.477652   9.588393  10.334129   9.565031
    20  H    2.155375   3.078468   8.927501   9.565031   9.081389
                   16         17         18         19         20
    16  H    0.000000
    17  C    9.266588   0.000000
    18  H    9.567650   1.094235   0.000000
    19  H   10.042782   1.092417   1.768182   0.000000
    20  H    9.404107   1.091137   1.773971   1.773734   0.000000
 Stoichiometry    C8H12
 Framework group  C1[X(C8H12)]
 Deg. of freedom    54
 Full point group                 C1      NOp   1
 RotChk:  IX=0 Diff= 3.57D-03
 Largest Abelian subgroup         C1      NOp   1
 Largest concise Abelian subgroup C1      NOp   1
                         Standard orientation:                         
 ---------------------------------------------------------------------
 Center     Atomic      Atomic             Coordinates (Angstroms)
 Number     Number       Type             X           Y           Z
 ---------------------------------------------------------------------
      1          6           0        3.041425   -0.453179   -0.005812
      2          1           0        2.984033   -1.537604   -0.011131
      3          6           0        1.902152    0.262303   -0.004907
      4          1           0        1.940164    1.347455   -0.004547
      5          6           0        0.571706   -0.359493   -0.003847
      6          1           0        0.533397   -1.444071   -0.003944
      7          6           0       -0.571706    0.359493   -0.003849
      8          1           0       -0.533397    1.444071   -0.003948
      9          6           0       -1.902152   -0.262303   -0.004908
     10          1           0       -1.940164   -1.347455   -0.004548
     11          6           0       -3.041425    0.453179   -0.005811
     12          1           0       -2.984033    1.537604   -0.011129
     13          6           0        4.422435    0.184855    0.009833
     14          1           0        5.148191   -0.441228   -0.514260
     15          1           0        4.389593    1.161629   -0.475363
     16          1           0        4.773200    0.318654    1.037652
     17          6           0       -4.422435   -0.184855    0.009833
     18          1           0       -4.773200   -0.318656    1.037652
     19          1           0       -5.148191    0.441229   -0.514259
     20          1           0       -4.389593   -1.161628   -0.475365
 ---------------------------------------------------------------------
 Rotational constants (GHZ):     17.0738624      0.5300000      0.5173725
 Leave Link  202 at Mon Jun 07 14:54:59 2021, MaxMem=    33554432 cpu:         0.0
 (Enter C:\G09W\l301.exe)
 Standard basis: 6-31G(d) (6D, 7F)
 Ernie: Thresh=  0.10000D-02 Tol=  0.10000D-05 Strict=F.
 There are   144 symmetry adapted cartesian basis functions of A   symmetry.
 There are   144 symmetry adapted basis functions of A   symmetry.
   144 basis functions,   272 primitive gaussians,   144 cartesian basis functions
    30 alpha electrons       30 beta electrons
       nuclear repulsion energy       312.4543781022 Hartrees.
 IExCor=  402 DFT=T Ex+Corr=B3LYP ExCW=0 ScaHFX=  0.200000
 ScaDFX=  0.800000  0.720000  1.000000  0.810000 ScalE2=  1.000000  1.000000
 IRadAn=      5 IRanWt=     -1 IRanGd=            0 ICorTp=0 IEmpDi=  4
 NAtoms=   20 NActive=   20 NUniq=   20 SFac= 1.00D+00 NAtFMM=   60 NAOKFM=F Big=F
 Integral buffers will be    131072 words long.
 Raffenetti 2 integral format.
 Two-electron integral symmetry is turned on.
 Leave Link  301 at Mon Jun 07 14:54:59 2021, MaxMem=    33554432 cpu:         0.0
 (Enter C:\G09W\l302.exe)
 NPDir=0 NMtPBC=     1 NCelOv=     1 NCel=       1 NClECP=     1 NCelD=      1
         NCelK=      1 NCelE2=     1 NClLst=     1 CellRange=     0.0.
 One-electron integrals computed using PRISM.
 NBasis=   144 RedAO= T EigKep=  2.13D-03  NBF=   144
 NBsUse=   144 1.00D-06 EigRej= -1.00D+00 NBFU=   144
 Precomputing XC quadrature grid using
 IXCGrd= 4 IRadAn=           5 IRanWt=          -1 IRanGd=           0 AccXCQ= 0.00D+00.
 Generated NRdTot=       0 NPtTot=           0 NUsed=           0 NTot=          32
 NSgBfM=   143   143   143   143   143 MxSgAt=    20 MxSgA2=    20.
 Leave Link  302 at Mon Jun 07 14:55:00 2021, MaxMem=    33554432 cpu:         1.0
 (Enter C:\G09W\l303.exe)
 DipDrv:  MaxL=1.
 Leave Link  303 at Mon Jun 07 14:55:00 2021, MaxMem=    33554432 cpu:         0.0
 (Enter C:\G09W\l401.exe)
 Initial guess from the checkpoint file:  "C:\G09W\mine\substituent\mini\3\mini_3_pp.chk"
 B after Tr=     0.000000    0.000000    0.000000
         Rot=    1.000000    0.000000    0.000000   -0.000926 Ang=   0.11 deg.
 Guess basis will be translated and rotated to current coordinates.
 JPrj=2 DoOrth=T DoCkMO=T.
 Generating alternative initial guess.
 ExpMin= 1.61D-01 ExpMax= 3.05D+03 ExpMxC= 4.57D+02 IAcc=2 IRadAn=         4 AccDes= 0.00D+00
 Harris functional with IExCor=  402 and IRadAn=       4 diagonalized for initial guess.
 HarFok:  IExCor=  402 AccDes= 0.00D+00 IRadAn=         4 IDoV= 1 UseB2=F ITyADJ=14
 ICtDFT=  3500011 ScaDFX=  1.000000  1.000000  1.000000  1.000000
 FoFCou: FMM=F IPFlag=           0 FMFlag=      100000 FMFlg1=           0
         NFxFlg=           0 DoJE=T BraDBF=F KetDBF=T FulRan=T
         wScrn=  0.000000 ICntrl=     500 IOpCl=  0 I1Cent=   200000004 NGrid=           0
         NMat0=    1 NMatS0=      1 NMatT0=    0 NMatD0=    1 NMtDS0=    0 NMtDT0=    0
 Petite list used in FoFCou.
 Harris En= -312.112465567460    
 Leave Link  401 at Mon Jun 07 14:55:03 2021, MaxMem=    33554432 cpu:         3.0
 (Enter C:\G09W\l502.exe)
 Closed shell SCF:
 Using DIIS extrapolation, IDIIS=  1040.
 Integral symmetry usage will be decided dynamically.
 IVT=       82726 IEndB=       82726 NGot=    33554432 MDV=    33509227
 LenX=    33509227 LenY=    33488050
 Requested convergence on RMS density matrix=1.00D-08 within 128 cycles.
 Requested convergence on MAX density matrix=1.00D-06.
 Requested convergence on             energy=1.00D-06.
 No special actions if energy rises.
 Fock matrices will be formed incrementally for  20 cycles.
 Integral accuracy reduced to 1.0D-05 until final iterations.

 Cycle   1  Pass 0  IDiag  1:
 FoFJK:  IHMeth= 1 ICntrl=       0 DoSepK=F KAlg= 0 I1Cent=   0 FoldK=F
 IRaf= 830000000 NMat=   1 IRICut=       1 DoRegI=T DoRafI=F ISym2E= 0.
 FoFCou: FMM=F IPFlag=           0 FMFlag=      100000 FMFlg1=           0
         NFxFlg=           0 DoJE=F BraDBF=F KetDBF=F FulRan=T
         wScrn=  0.000000 ICntrl=       0 IOpCl=  0 I1Cent=           0 NGrid=           0
         NMat0=    1 NMatS0=      1 NMatT0=    0 NMatD0=    1 NMtDS0=    0 NMtDT0=    0
 Symmetry not used in FoFCou.
 E= -312.029018570922    
 DIIS: error= 3.62D-03 at cycle   1 NSaved=   1.
 NSaved= 1 IEnMin= 1 EnMin= -312.029018570922     IErMin= 1 ErrMin= 3.62D-03
 ErrMax= 3.62D-03  0.00D+00 EMaxC= 1.00D-01 BMatC= 2.83D-03 BMatP= 2.83D-03
 IDIUse=3 WtCom= 9.64D-01 WtEn= 3.62D-02
 Coeff-Com:  0.100D+01
 Coeff-En:   0.100D+01
 Coeff:      0.100D+01
 Gap=     2.759 Goal=   None    Shift=    0.000
 GapD=    2.759 DampG=2.000 DampE=1.000 DampFc=2.0000 IDamp=-1.
 RMSDP=6.88D-04 MaxDP=9.40D-03              OVMax= 2.84D-02

 Cycle   2  Pass 0  IDiag  1:
 RMSU=  6.88D-04    CP:  1.00D+00
 E= -312.033561219872     Delta-E=       -0.004542648950 Rises=F Damp=F
 DIIS: error= 1.74D-03 at cycle   2 NSaved=   2.
 NSaved= 2 IEnMin= 2 EnMin= -312.033561219872     IErMin= 2 ErrMin= 1.74D-03
 ErrMax= 1.74D-03  0.00D+00 EMaxC= 1.00D-01 BMatC= 5.00D-04 BMatP= 2.83D-03
 IDIUse=3 WtCom= 9.83D-01 WtEn= 1.74D-02
 Coeff-Com:  0.195D+00 0.805D+00
 Coeff-En:   0.000D+00 0.100D+01
 Coeff:      0.191D+00 0.809D+00
 Gap=     0.164 Goal=   None    Shift=    0.000
 RMSDP=3.01D-04 MaxDP=5.66D-03 DE=-4.54D-03 OVMax= 1.55D-02

 Cycle   3  Pass 0  IDiag  1:
 RMSU=  2.99D-04    CP:  1.00D+00  9.52D-01
 E= -312.033440791315     Delta-E=        0.000120428557 Rises=F Damp=F
 DIIS: error= 2.46D-03 at cycle   3 NSaved=   3.
 NSaved= 3 IEnMin= 2 EnMin= -312.033561219872     IErMin= 2 ErrMin= 1.74D-03
 ErrMax= 2.46D-03  0.00D+00 EMaxC= 1.00D-01 BMatC= 5.84D-04 BMatP= 5.00D-04
 IDIUse=3 WtCom= 1.68D-01 WtEn= 8.32D-01
 Coeff-Com: -0.407D-02 0.522D+00 0.482D+00
 Coeff-En:   0.000D+00 0.545D+00 0.455D+00
 Coeff:     -0.683D-03 0.541D+00 0.460D+00
 Gap=     0.164 Goal=   None    Shift=    0.000
 RMSDP=1.88D-04 MaxDP=4.42D-03 DE= 1.20D-04 OVMax= 1.20D-02

 Cycle   4  Pass 0  IDiag  1:
 RMSU=  7.49D-05    CP:  1.00D+00  9.93D-01  4.32D-01
 E= -312.034051173242     Delta-E=       -0.000610381927 Rises=F Damp=F
 DIIS: error= 4.07D-04 at cycle   4 NSaved=   4.
 NSaved= 4 IEnMin= 4 EnMin= -312.034051173242     IErMin= 4 ErrMin= 4.07D-04
 ErrMax= 4.07D-04  0.00D+00 EMaxC= 1.00D-01 BMatC= 3.02D-05 BMatP= 5.00D-04
 IDIUse=3 WtCom= 9.96D-01 WtEn= 4.07D-03
 Coeff-Com: -0.141D-01 0.243D+00 0.258D+00 0.513D+00
 Coeff-En:   0.000D+00 0.000D+00 0.000D+00 0.100D+01
 Coeff:     -0.140D-01 0.242D+00 0.257D+00 0.515D+00
 Gap=     0.163 Goal=   None    Shift=    0.000
 RMSDP=4.20D-05 MaxDP=1.11D-03 DE=-6.10D-04 OVMax= 2.41D-03

 Cycle   5  Pass 0  IDiag  1:
 RMSU=  2.42D-05    CP:  1.00D+00  9.98D-01  4.75D-01  5.79D-01
 E= -312.034081124998     Delta-E=       -0.000029951755 Rises=F Damp=F
 DIIS: error= 8.32D-05 at cycle   5 NSaved=   5.
 NSaved= 5 IEnMin= 5 EnMin= -312.034081124998     IErMin= 5 ErrMin= 8.32D-05
 ErrMax= 8.32D-05  0.00D+00 EMaxC= 1.00D-01 BMatC= 1.60D-06 BMatP= 3.02D-05
 IDIUse=1 WtCom= 1.00D+00 WtEn= 0.00D+00
 Coeff-Com: -0.499D-02 0.442D-01 0.585D-01 0.224D+00 0.679D+00
 Coeff:     -0.499D-02 0.442D-01 0.585D-01 0.224D+00 0.679D+00
 Gap=     0.163 Goal=   None    Shift=    0.000
 RMSDP=7.72D-06 MaxDP=1.80D-04 DE=-3.00D-05 OVMax= 4.32D-04

 Initial convergence to 1.0D-05 achieved.  Increase integral accuracy.
 Cycle   6  Pass 1  IDiag  1:
 E= -312.034066356005     Delta-E=        0.000014768992 Rises=F Damp=F
 DIIS: error= 1.54D-05 at cycle   1 NSaved=   1.
 NSaved= 1 IEnMin= 1 EnMin= -312.034066356005     IErMin= 1 ErrMin= 1.54D-05
 ErrMax= 1.54D-05  0.00D+00 EMaxC= 1.00D-01 BMatC= 3.21D-08 BMatP= 3.21D-08
 IDIUse=1 WtCom= 1.00D+00 WtEn= 0.00D+00
 Coeff-Com:  0.100D+01
 Coeff:      0.100D+01
 Gap=     0.163 Goal=   None    Shift=    0.000
 RMSDP=7.72D-06 MaxDP=1.80D-04 DE= 1.48D-05 OVMax= 6.25D-05

 Cycle   7  Pass 1  IDiag  1:
 RMSU=  5.25D-06    CP:  1.00D+00
 E= -312.034066369367     Delta-E=       -0.000000013362 Rises=F Damp=F
 DIIS: error= 9.11D-06 at cycle   2 NSaved=   2.
 NSaved= 2 IEnMin= 2 EnMin= -312.034066369367     IErMin= 2 ErrMin= 9.11D-06
 ErrMax= 9.11D-06  0.00D+00 EMaxC= 1.00D-01 BMatC= 1.16D-08 BMatP= 3.21D-08
 IDIUse=1 WtCom= 1.00D+00 WtEn= 0.00D+00
 Coeff-Com:  0.340D+00 0.660D+00
 Coeff:      0.340D+00 0.660D+00
 Gap=     0.163 Goal=   None    Shift=    0.000
 RMSDP=1.19D-06 MaxDP=1.93D-05 DE=-1.34D-08 OVMax= 5.91D-05

 Cycle   8  Pass 1  IDiag  1:
 RMSU=  1.14D-06    CP:  1.00D+00  9.34D-01
 E= -312.034066377212     Delta-E=       -0.000000007845 Rises=F Damp=F
 DIIS: error= 5.76D-06 at cycle   3 NSaved=   3.
 NSaved= 3 IEnMin= 3 EnMin= -312.034066377212     IErMin= 3 ErrMin= 5.76D-06
 ErrMax= 5.76D-06  0.00D+00 EMaxC= 1.00D-01 BMatC= 4.02D-09 BMatP= 1.16D-08
 IDIUse=1 WtCom= 1.00D+00 WtEn= 0.00D+00
 Coeff-Com:  0.505D-01 0.372D+00 0.578D+00
 Coeff:      0.505D-01 0.372D+00 0.578D+00
 Gap=     0.163 Goal=   None    Shift=    0.000
 RMSDP=5.71D-07 MaxDP=1.21D-05 DE=-7.85D-09 OVMax= 3.14D-05

 Cycle   9  Pass 1  IDiag  1:
 RMSU=  3.57D-07    CP:  1.00D+00  9.63D-01  6.32D-01
 E= -312.034066380945     Delta-E=       -0.000000003733 Rises=F Damp=F
 DIIS: error= 2.02D-06 at cycle   4 NSaved=   4.
 NSaved= 4 IEnMin= 4 EnMin= -312.034066380945     IErMin= 4 ErrMin= 2.02D-06
 ErrMax= 2.02D-06  0.00D+00 EMaxC= 1.00D-01 BMatC= 4.89D-10 BMatP= 4.02D-09
 IDIUse=1 WtCom= 1.00D+00 WtEn= 0.00D+00
 Coeff-Com:  0.744D-02 0.182D+00 0.354D+00 0.456D+00
 Coeff:      0.744D-02 0.182D+00 0.354D+00 0.456D+00
 Gap=     0.163 Goal=   None    Shift=    0.000
 RMSDP=1.85D-07 MaxDP=4.67D-06 DE=-3.73D-09 OVMax= 1.20D-05

 Cycle  10  Pass 1  IDiag  1:
 RMSU=  8.46D-08    CP:  1.00D+00  9.62D-01  6.70D-01  5.57D-01
 E= -312.034066381467     Delta-E=       -0.000000000522 Rises=F Damp=F
 DIIS: error= 4.50D-07 at cycle   5 NSaved=   5.
 NSaved= 5 IEnMin= 5 EnMin= -312.034066381467     IErMin= 5 ErrMin= 4.50D-07
 ErrMax= 4.50D-07  0.00D+00 EMaxC= 1.00D-01 BMatC= 3.43D-11 BMatP= 4.89D-10
 IDIUse=1 WtCom= 1.00D+00 WtEn= 0.00D+00
 Coeff-Com: -0.182D-02 0.651D-01 0.142D+00 0.262D+00 0.533D+00
 Coeff:     -0.182D-02 0.651D-01 0.142D+00 0.262D+00 0.533D+00
 Gap=     0.163 Goal=   None    Shift=    0.000
 RMSDP=3.96D-08 MaxDP=1.05D-06 DE=-5.22D-10 OVMax= 1.83D-06

 Cycle  11  Pass 1  IDiag  1:
 RMSU=  1.86D-08    CP:  1.00D+00  9.63D-01  6.65D-01  5.66D-01  6.05D-01
 E= -312.034066381518     Delta-E=       -0.000000000050 Rises=F Damp=F
 DIIS: error= 2.15D-08 at cycle   6 NSaved=   6.
 NSaved= 6 IEnMin= 6 EnMin= -312.034066381518     IErMin= 6 ErrMin= 2.15D-08
 ErrMax= 2.15D-08  0.00D+00 EMaxC= 1.00D-01 BMatC= 6.40D-14 BMatP= 3.43D-11
 IDIUse=1 WtCom= 1.00D+00 WtEn= 0.00D+00
 Coeff-Com: -0.352D-03 0.178D-02 0.368D-02 0.108D-01 0.271D-01 0.957D+00
 Coeff:     -0.352D-03 0.178D-02 0.368D-02 0.108D-01 0.271D-01 0.957D+00
 Gap=     0.163 Goal=   None    Shift=    0.000
 RMSDP=4.30D-09 MaxDP=6.96D-08 DE=-5.04D-11 OVMax= 2.85D-07

 SCF Done:  E(RB3LYP) =  -312.034066382     A.U. after   11 cycles
            NFock= 11  Conv=0.43D-08     -V/T= 2.0103
 KE= 3.088419885662D+02 PE=-1.346075172755D+03 EE= 4.127447397048D+02
 Leave Link  502 at Mon Jun 07 14:56:27 2021, MaxMem=    33554432 cpu:        84.0
 (Enter C:\G09W\l701.exe)
 Compute integral first derivatives.
 ... and contract with generalized density number  0.
 Leave Link  701 at Mon Jun 07 14:56:27 2021, MaxMem=    33554432 cpu:         0.0
 (Enter C:\G09W\l702.exe)
 L702 exits ... SP integral derivatives will be done elsewhere.
 Leave Link  702 at Mon Jun 07 14:56:27 2021, MaxMem=    33554432 cpu:         0.0
 (Enter C:\G09W\l703.exe)
 Compute integral first derivatives, UseDBF=F ICtDFT=           0.
 Integral derivatives from FoFJK, PRISM(SPDF).
 Calling FoFJK, ICntrl=      2127 FMM=F ISym2X=0 I1Cent= 0 IOpClX= 0 NMat=1 NMatS=1 NMatT=0.
 FoFJK:  IHMeth= 1 ICntrl=    2127 DoSepK=F KAlg= 0 I1Cent=   0 FoldK=F
 IRaf=         0 NMat=   1 IRICut=       1 DoRegI=T DoRafI=F ISym2E= 0.
 FoFCou: FMM=F IPFlag=           0 FMFlag=      100000 FMFlg1=         800
         NFxFlg=           0 DoJE=F BraDBF=F KetDBF=F FulRan=T
         wScrn=  0.000000 ICntrl=    2127 IOpCl=  0 I1Cent=           0 NGrid=           0
         NMat0=    1 NMatS0=      1 NMatT0=    0 NMatD0=    1 NMtDS0=    0 NMtDT0=    0
 Symmetry not used in FoFCou.
 Leave Link  703 at Mon Jun 07 14:56:49 2021, MaxMem=    33554432 cpu:        21.0
 (Enter C:\G09W\l716.exe)
 Dipole        =-5.15807557D-08-3.57821022D-08 2.86744964D-02
 ***** Axes restored to original set *****
 -------------------------------------------------------------------
 Center     Atomic                   Forces (Hartrees/Bohr)
 Number     Number              X              Y              Z
 -------------------------------------------------------------------
      1        6           0.012978368   -0.007475194   -0.001523772
      2        1          -0.002392213   -0.000707828    0.001255900
      3        6          -0.018057218    0.009085078    0.000855466
      4        1           0.002962447    0.000144035   -0.000496305
      5        6           0.017953560   -0.011346938   -0.001398414
      6        1          -0.002891886    0.000252346    0.000193543
      7        6          -0.017945707    0.011340651    0.001542776
      8        1           0.002894620   -0.000254535   -0.000143298
      9        6           0.018000642   -0.009039779   -0.001895465
     10        1          -0.002999417   -0.000114432   -0.000183296
     11        6          -0.013031659    0.007517865    0.000544197
     12        1           0.002517438    0.000607561    0.001046055
     13        6          -0.009217917    0.011719621   -0.000510280
     14        1          -0.000016282   -0.002292347   -0.000846241
     15        1           0.003130251   -0.001556915    0.000099589
     16        1           0.000630173   -0.003017609    0.001867859
     17        6           0.009053108   -0.011587659   -0.002519385
     18        1          -0.000409988    0.002841304    0.002179639
     19        1          -0.000064628    0.002357135   -0.000641093
     20        1          -0.003093692    0.001527640    0.000572524
 -------------------------------------------------------------------
 Cartesian Forces:  Max     0.018057218 RMS     0.006753011
 Leave Link  716 at Mon Jun 07 14:56:49 2021, MaxMem=    33554432 cpu:         0.0
[...]
      5          6           0       -3.288672    0.927221    0.139640
      6          1           0       -4.377671    0.887541    0.197158
      7          6           0       -2.678605    2.135020    0.159059
      8          1           0       -1.589606    2.174700    0.101547
      9          6           0       -3.371462    3.403551    0.252008
     10          1           0       -4.460768    3.361237    0.309423
     11          6           0       -2.765920    4.605420    0.271421
     12          1           0       -1.676620    4.641036    0.213717
     13          6           0       -2.497549   -2.862945   -0.068476
     14          1           0       -2.818492   -3.424002   -0.957496
     15          1           0       -1.410792   -2.737352   -0.122128
     16          1           0       -2.722983   -3.500458    0.798071
     17          6           0       -3.469726    5.925185    0.367199
     18          1           0       -3.148790    6.486229    1.256229
     19          1           0       -3.244285    6.562709   -0.499337
     20          1           0       -4.556483    5.799592    0.420843
 ---------------------------------------------------------------------
                    Distance matrix (angstroms):
                    1          2          3          4          5
     1  C    0.000000
     2  H    1.091409   0.000000
     3  C    1.345937   2.098887   0.000000
     4  H    2.102843   3.065702   1.091639   0.000000
     5  C    2.474495   2.699459   1.448399   2.168484   0.000000
     6  H    2.705730   2.470419   2.169729   3.113625   1.091238
     7  C    3.717497   4.049275   2.480260   2.706856   1.353269
     8  H    4.052886   4.624357   2.710308   2.477636   2.108194
     9  C    4.954753   5.069181   3.829852   4.154026   2.480260
    10  H    5.071393   4.948053   4.154026   4.714600   2.706856
    11  C    6.168832   6.372135   4.954753   5.071393   3.717497
    12  H    6.372135   6.748042   5.069181   4.948053   4.049275
    13  C    1.498765   2.210843   2.526176   2.749424   3.877441
    14  H    2.157286   2.580475   3.249765   3.518998   4.511974
    15  H    2.157427   3.111072   2.678394   2.442775   4.126021
    16  H    2.157285   2.580475   3.249761   3.518992   4.511971
    17  C    7.480911   7.554025   6.335251   6.537391   5.006417
    18  H    8.123082   8.229233   6.955864   7.095177   5.671765
    19  H    8.123092   8.229244   6.955872   7.095183   5.671771
    20  H    7.477135   7.390810   6.457158   6.832377   5.042462
                    6          7          8          9         10
     6  H    0.000000
     7  C    2.108194   0.000000
     8  H    3.072332   1.091238   0.000000
     9  C    2.710308   1.448399   2.169729   0.000000
    10  H    2.477636   2.168484   3.113625   1.091639   0.000000
    11  C    4.052886   2.474495   2.705730   1.345937   2.102843
    12  H    4.624357   2.699459   2.470419   2.098887   3.065702
    13  C    4.203756   5.006417   5.121634   6.335251   6.537391
    14  H    4.727966   5.671771   5.828995   6.955871   7.095183
    15  H    4.695121   5.042462   4.920392   6.457158   6.832377
    16  H    4.727962   5.671765   5.828989   6.955865   7.095177
    17  C    5.121634   3.877441   4.203756   2.526176   2.749424
    18  H    5.828987   4.511971   4.727963   3.249761   3.518992
    19  H    5.828997   4.511974   4.727965   3.249765   3.518998
    20  H    4.920392   4.126021   4.695121   2.678394   2.442775
                   11         12         13         14         15
    11  C    0.000000
    12  H    1.091409   0.000000
    13  C    7.480911   7.554025   0.000000
    14  H    8.123091   8.229243   1.099156   0.000000
    15  H    7.477135   7.390810   1.095305   1.775090   0.000000
    16  H    8.123082   8.229233   1.099157   1.759825   1.775089
    17  C    1.498765   2.210843   8.852467   9.464999   8.917298
    18  H    2.157285   2.580475   9.464989  10.159840   9.486567
    19  H    2.157286   2.580475   9.465000  10.006278   9.486576
    20  H    2.157427   3.111072   8.917298   9.486575   9.114253
                   16         17         18         19         20
    16  H    0.000000
    17  C    9.464990   0.000000
    18  H   10.006255   1.099157   0.000000
    19  H   10.159841   1.099156   1.759825   0.000000
    20  H    9.486568   1.095305   1.775089   1.775090   0.000000
 Stoichiometry    C8H12
 Framework group  C1[X(C8H12)]
 Deg. of freedom    54
 Full point group                 C1      NOp   1
 RotChk:  IX=3 Diff= 9.37D-16
 Largest Abelian subgroup         C1      NOp   1
 Largest concise Abelian subgroup C1      NOp   1
                         Standard orientation:                         
 ---------------------------------------------------------------------
 Center     Atomic      Atomic             Coordinates (Angstroms)
 Number     Number       Type             X           Y           Z
 ---------------------------------------------------------------------
      1          6           0        3.054010   -0.432023    0.000000
      2          1           0        3.010941   -1.522581    0.000003
      3          6           0        1.897641    0.256713   -0.000002
      4          1           0        1.934023    1.347746   -0.000002
      5          6           0        0.580982   -0.346835   -0.000006
      6          1           0        0.541992   -1.437377   -0.000002
      7          6           0       -0.580982    0.346835   -0.000007
      8          1           0       -0.541992    1.437377   -0.000006
      9          6           0       -1.897641   -0.256713   -0.000004
     10          1           0       -1.934023   -1.347746   -0.000004
     11          6           0       -3.054010    0.432023    0.000001
     12          1           0       -3.010941    1.522581    0.000005
     13          6           0        4.422617    0.178888    0.000005
     14          1           0        5.001295   -0.135820   -0.879902
     15          1           0        4.375660    1.273185    0.000002
     16          1           0        5.001284   -0.135813    0.879923
     17          6           0       -4.422617   -0.178888    0.000006
     18          1           0       -5.001284    0.135812    0.879924
     19          1           0       -5.001295    0.135821   -0.879901
     20          1           0       -4.375660   -1.273185    0.000001
 ---------------------------------------------------------------------
 Rotational constants (GHZ):     17.6283001      0.5282167      0.5161191
 Leave Link  202 at Mon Jun 07 15:10:23 2021, MaxMem=    33554432 cpu:         0.0
 (Enter C:\G09W\l601.exe)
 Copying SCF densities to generalized density rwf, IOpCl= 0 IROHF=0.

 **********************************************************************

            Population analysis using the SCF density.

 **********************************************************************

 Orbital symmetries:
       Occupied  (A) (A) (A) (A) (A) (A) (A) (A) (A) (A) (A) (A)
                 (A) (A) (A) (A) (A) (A) (A) (A) (A) (A) (A) (A)
                 (A) (A) (A) (A) (A) (A)
       Virtual   (A) (A) (A) (A) (A) (A) (A) (A) (A) (A) (A) (A)
                 (A) (A) (A) (A) (A) (A) (A) (A) (A) (A) (A) (A)
                 (A) (A) (A) (A) (A) (A) (A) (A) (A) (A) (A) (A)
                 (A) (A) (A) (A) (A) (A) (A) (A) (A) (A) (A) (A)
                 (A) (A) (A) (A) (A) (A) (A) (A) (A) (A) (A) (A)
                 (A) (A) (A) (A) (A) (A) (A) (A) (A) (A) (A) (A)
                 (A) (A) (A) (A) (A) (A) (A) (A) (A) (A) (A) (A)
                 (A) (A) (A) (A) (A) (A) (A) (A) (A) (A) (A) (A)
                 (A) (A) (A) (A) (A) (A) (A) (A) (A) (A) (A) (A)
                 (A) (A) (A) (A) (A) (A)
 The electronic state is 1-A.
 Alpha  occ. eigenvalues --  -10.18621 -10.18621 -10.18385 -10.18311 -10.18162
 Alpha  occ. eigenvalues --  -10.18161 -10.18156 -10.18156  -0.81370  -0.78957
 Alpha  occ. eigenvalues --   -0.75237  -0.70184  -0.65603  -0.57566  -0.55229
 Alpha  occ. eigenvalues --   -0.54016  -0.46847  -0.45675  -0.42577  -0.40937
 Alpha  occ. eigenvalues --   -0.40891  -0.40364  -0.38005  -0.36674  -0.35893
 Alpha  occ. eigenvalues --   -0.34701  -0.33650  -0.32479  -0.26888  -0.19315
 Alpha virt. eigenvalues --   -0.03280   0.05711   0.10016   0.11019   0.11918
 Alpha virt. eigenvalues --    0.11944   0.13210   0.15773   0.15847   0.16940
 Alpha virt. eigenvalues --    0.17220   0.17427   0.17493   0.19703   0.19960
 Alpha virt. eigenvalues --    0.24602   0.27577   0.34803   0.35807   0.37307
 Alpha virt. eigenvalues --    0.42731   0.43032   0.48388   0.49931   0.52659
 Alpha virt. eigenvalues --    0.53818   0.57686   0.57980   0.58039   0.58897
 Alpha virt. eigenvalues --    0.59743   0.61255   0.64000   0.64697   0.65154
 Alpha virt. eigenvalues --    0.65858   0.72924   0.73232   0.73564   0.74067
 Alpha virt. eigenvalues --    0.77542   0.78112   0.83863   0.86740   0.87521
 Alpha virt. eigenvalues --    0.87523   0.88033   0.88135   0.90205   0.90322
 Alpha virt. eigenvalues --    0.91035   0.92415   0.95121   0.95233   0.98684
 Alpha virt. eigenvalues --    1.00243   1.05960   1.08528   1.15156   1.17261
 Alpha virt. eigenvalues --    1.24164   1.27817   1.33488   1.34669   1.34729
 Alpha virt. eigenvalues --    1.37894   1.39250   1.42282   1.44637   1.48451
 Alpha virt. eigenvalues --    1.54392   1.63935   1.72193   1.76655   1.78330
 Alpha virt. eigenvalues --    1.83732   1.85406   1.89579   1.89780   1.92894
 Alpha virt. eigenvalues --    1.96066   1.97652   2.01257   2.07388   2.08999
 Alpha virt. eigenvalues --    2.16442   2.18227   2.20580   2.21253   2.30773
 Alpha virt. eigenvalues --    2.30862   2.32190   2.35602   2.35920   2.37994
 Alpha virt. eigenvalues --    2.45415   2.50263   2.50806   2.54213   2.63310
 Alpha virt. eigenvalues --    2.78371   2.85729   2.91700   2.93689   3.07371
 Alpha virt. eigenvalues --    3.08461   4.09819   4.11276   4.14490   4.18719
 Alpha virt. eigenvalues --    4.28654   4.34659   4.43218   4.53348
          Condensed to atoms (all electrons):
               1          2          3          4          5          6
     1  C    4.907076   0.364672   0.644865  -0.054243  -0.017521  -0.006264
     2  H    0.364672   0.611341  -0.046680   0.006683  -0.010528   0.005758
     3  C    0.644865  -0.046680   4.811475   0.360906   0.421818  -0.053859
     4  H   -0.054243   0.006683   0.360906   0.623108  -0.053366   0.005474
     5  C   -0.017521  -0.010528   0.421818  -0.053366   4.909733   0.363026
     6  H   -0.006264   0.005758  -0.053859   0.005474   0.363026   0.619986
     7  C    0.002872   0.000464  -0.009017  -0.006359   0.576794  -0.056149
     8  H    0.000404   0.000014  -0.008021   0.005309  -0.056149   0.006315
     9  C   -0.000235   0.000000   0.003331   0.000259  -0.009017  -0.008021
    10  H   -0.000001   0.000001   0.000259   0.000009  -0.006359   0.005309
    11  C    0.000003   0.000000  -0.000235  -0.000001   0.002872   0.000404
    12  H    0.000000   0.000000   0.000000   0.000001   0.000464   0.000014
    13  C    0.363186  -0.057343  -0.017516  -0.009971   0.004241   0.000099
    14  H   -0.030800  -0.000697  -0.000992   0.000120  -0.000104   0.000000
    15  H   -0.035840   0.004650  -0.005559   0.006655   0.000185   0.000012
    16  H   -0.030800  -0.000697  -0.000992   0.000120  -0.000104   0.000000
    17  C    0.000000   0.000000   0.000002   0.000000  -0.000220  -0.000005
    18  H    0.000000   0.000000   0.000000   0.000000   0.000004   0.000000
    19  H    0.000000   0.000000   0.000000   0.000000   0.000004   0.000000
    20  H    0.000000   0.000000   0.000000   0.000000   0.000006   0.000000
               7          8          9         10         11         12
     1  C    0.002872   0.000404  -0.000235  -0.000001   0.000003   0.000000
     2  H    0.000464   0.000014   0.000000   0.000001   0.000000   0.000000
     3  C   -0.009017  -0.008021   0.003331   0.000259  -0.000235   0.000000
     4  H   -0.006359   0.005309   0.000259   0.000009  -0.000001   0.000001
     5  C    0.576794  -0.056149  -0.009017  -0.006359   0.002872   0.000464
     6  H   -0.056149   0.006315  -0.008021   0.005309   0.000404   0.000014
     7  C    4.909733   0.363026   0.421818  -0.053366  -0.017521  -0.010528
     8  H    0.363026   0.619986  -0.053859   0.005474  -0.006264   0.005758
     9  C    0.421818  -0.053859   4.811475   0.360906   0.644865  -0.046680
    10  H   -0.053366   0.005474   0.360906   0.623108  -0.054243   0.006683
    11  C   -0.017521  -0.006264   0.644865  -0.054243   4.907076   0.364672
    12  H   -0.010528   0.005758  -0.046680   0.006683   0.364672   0.611341
    13  C   -0.000220  -0.000005   0.000002   0.000000   0.000000   0.000000
    14  H    0.000004   0.000000   0.000000   0.000000   0.000000   0.000000
    15  H    0.000006   0.000000   0.000000   0.000000   0.000000   0.000000
    16  H    0.000004   0.000000   0.000000   0.000000   0.000000   0.000000
    17  C    0.004241   0.000099  -0.017516  -0.009971   0.363186  -0.057343
    18  H   -0.000104   0.000000  -0.000992   0.000120  -0.030800  -0.000697
    19  H   -0.000104   0.000000  -0.000992   0.000120  -0.030800  -0.000697
    20  H    0.000185   0.000012  -0.005559   0.006655  -0.035840   0.004650
              13         14         15         16         17         18
     1  C    0.363186  -0.030800  -0.035840  -0.030800   0.000000   0.000000
     2  H   -0.057343  -0.000697   0.004650  -0.000697   0.000000   0.000000
     3  C   -0.017516  -0.000992  -0.005559  -0.000992   0.000002   0.000000
     4  H   -0.009971   0.000120   0.006655   0.000120   0.000000   0.000000
     5  C    0.004241  -0.000104   0.000185  -0.000104  -0.000220   0.000004
     6  H    0.000099   0.000000   0.000012   0.000000  -0.000005   0.000000
     7  C   -0.000220   0.000004   0.000006   0.000004   0.004241  -0.000104
     8  H   -0.000005   0.000000   0.000000   0.000000   0.000099   0.000000
     9  C    0.000002   0.000000   0.000000   0.000000  -0.017516  -0.000992
    10  H    0.000000   0.000000   0.000000   0.000000  -0.009971   0.000120
    11  C    0.000000   0.000000   0.000000   0.000000   0.363186  -0.030800
    12  H    0.000000   0.000000   0.000000   0.000000  -0.057343  -0.000697
    13  C    5.099752   0.366962   0.373721   0.366962   0.000000   0.000000
    14  H    0.366962   0.574139  -0.028249  -0.037259   0.000000   0.000000
    15  H    0.373721  -0.028249   0.559172  -0.028249   0.000000   0.000000
    16  H    0.366962  -0.037259  -0.028249   0.574140   0.000000   0.000000
    17  C    0.000000   0.000000   0.000000   0.000000   5.099752   0.366962
    18  H    0.000000   0.000000   0.000000   0.000000   0.366962   0.574140
    19  H    0.000000   0.000000   0.000000   0.000000   0.366962  -0.037259
    20  H    0.000000   0.000000   0.000000   0.000000   0.373721  -0.028249
              19         20
     1  C    0.000000   0.000000
     2  H    0.000000   0.000000
     3  C    0.000000   0.000000
     4  H    0.000000   0.000000
     5  C    0.000004   0.000006
     6  H    0.000000   0.000000
     7  C   -0.000104   0.000185
     8  H    0.000000   0.000012
     9  C   -0.000992  -0.005559
    10  H    0.000120   0.006655
    11  C   -0.030800  -0.035840
    12  H   -0.000697   0.004650
    13  C    0.000000   0.000000
    14  H    0.000000   0.000000
    15  H    0.000000   0.000000
    16  H    0.000000   0.000000
    17  C    0.366962   0.373721
    18  H   -0.037259  -0.028249
    19  H    0.574139  -0.028249
    20  H   -0.028249   0.559172
 Mulliken charges:
               1
     1  C   -0.107375
     2  H    0.122364
     3  C   -0.099784
     4  H    0.115294
     5  C   -0.125778
     6  H    0.117901
     7  C   -0.125778
     8  H    0.117901
     9  C   -0.099784
    10  H    0.115294
    11  C   -0.107375
    12  H    0.122364
    13  C   -0.489870
    14  H    0.156876
    15  H    0.153496
    16  H    0.156876
    17  C   -0.489870
    18  H    0.156876
    19  H    0.156876
    20  H    0.153496
 Sum of Mulliken charges =   0.00000
 Mulliken charges with hydrogens summed into heavy atoms:
               1
     1  C    0.014989
     3  C    0.015510
     5  C   -0.007877
     7  C   -0.007877
     9  C    0.015510
    11  C    0.014989
    13  C   -0.022622
    17  C   -0.022622
 Electronic spatial extent (au):  <R**2>=           2184.8351
 Charge=              0.0000 electrons
 Dipole moment (field-independent basis, Debye):
    X=              0.0000    Y=              0.0000    Z=              0.0000  Tot=              0.0000
 Quadrupole moment (field-independent basis, Debye-Ang):
   XX=            -42.8023   YY=            -46.5130   ZZ=            -53.3317
   XY=             -0.6294   XZ=              0.0000   YZ=              0.0000
 Traceless Quadrupole moment (field-independent basis, Debye-Ang):
   XX=              4.7467   YY=              1.0360   ZZ=             -5.7827
   XY=             -0.6294   XZ=              0.0000   YZ=              0.0000
 Octapole moment (field-independent basis, Debye-Ang**2):
  XXX=              0.0000  YYY=              0.0000  ZZZ=              0.0001  XYY=              0.0000
  XXY=              0.0000  XXZ=              0.0001  XZZ=              0.0000  YZZ=              0.0000
  YYZ=              0.0000  XYZ=              0.0000
 Hexadecapole moment (field-independent basis, Debye-Ang**3):
 XXXX=          -2652.4870 YYYY=           -135.7280 ZZZZ=            -68.5183 XXXY=            -19.9480
 XXXZ=              0.0000 YYYX=              1.3795 YYYZ=              0.0000 ZZZX=              0.0000
 ZZZY=              0.0000 XXYY=           -477.6125 XXZZ=           -482.2044 YYZZ=            -37.5220
 XXYZ=              0.0000 YYXZ=              0.0000 ZZXY=             -2.0613
 N-N= 3.128364227609D+02 E-N=-1.346793255461D+03  KE= 3.088683474635D+02
 No NMR shielding tensors so no spin-rotation constants.
 Leave Link  601 at Mon Jun 07 15:10:23 2021, MaxMem=    33554432 cpu:         0.0
 (Enter C:\G09W\l9999.exe)
 1|1|UNPC-DESKTOP-283F0EC|FOpt|RB3LYP|6-31G(d)|C8H12|HANA|07-Jun-2021|0
 ||#p opt=tight b3lyp/6-31g(d) geom=connectivity int=ultrafine||opt||0,
 1|C,-3.2013560966,-1.5431799295,0.0272920733|H,-4.2906559988,-1.578796
 2947,0.0850015352|C,-2.5958146316,-0.3413105256,0.0466977834|H,-1.5065
 080015,-0.2989966816,-0.0107171402|C,-3.2886718643,0.9272207676,0.1396
 401008|H,-4.3776706328,0.8875408274,0.1971577391|C,-2.6786047795,2.135
 0199651,0.1590590968|H,-1.5896057357,2.1746996848,0.1015465201|C,-3.37
 14616577,3.403550974,0.2520079339|H,-4.460768279,3.3612371227,0.309423
 0197|C,-2.7659198093,4.6054200708,0.2714206979|H,-1.6766195695,4.64103
 61657,0.2137174396|C,-2.4975490195,-2.8629453485,-0.0684756879|H,-2.81
 84920308,-3.4240015451,-0.957495669|H,-1.4107924548,-2.737352074,-0.12
 21284843|H,-2.7229826711,-3.5004583253,0.7980712396|C,-3.4697263363,5.
 9251850489,0.367198575|H,-3.1487896102,6.4862291781,1.2562293997|H,-3.
 2442852061,6.5627091375,-0.499337248|H,-4.5564833349,5.7995921217,0.42
 08433953||Version=EM64W-G09RevD.01|State=1-A|HF=-312.0387024|RMSD=5.60
 6e-009|RMSF=2.658e-007|Dipole=0.0000003,-0.0000002,0.0000052|Quadrupol
 e=0.7037671,3.5671299,-4.2708969,0.2826773,-0.2598558,0.3272626|PG=C01
  [X(C8H12)]||@


 THE ONLY TROUBLE WITH A SURE THING IS THE UNCERTAINTY.
     -- FROM A TEABAG (BELONGING TO W.H.?)
 Job cpu time:       0 days  0 hours 17 minutes 13.0 seconds.
 File lengths (MBytes):  RWF=     15 Int=      0 D2E=      0 Chk=      3 Scr=      1
 Normal termination of Gaussian 09 at Mon Jun 07 15:10:23 2021.
