 Entering Gaussian System, Link 0=/opt/app/gaussian09/e01/g09/g09.exec
 Input=3_pp_opt.gjf
 Output=3_pp_opt.log
 Initial command:
 /opt/app/gaussian09/e01/g09/l1.exe "./Gau-49044.inp" -scrdir="./"
 Entering Link 1 = /opt/app/gaussian09/e01/g09/l1.exe PID=     49048.
  
 Copyright (c) 1988,1990,1992,1993,1995,1998,2003,2009,2015,
            Gaussian, Inc.  All Rights Reserved.
  
 This is part of the Gaussian(R) 09 program.  It is based on
 the Gaussian(R) 03 system (copyright 2003, Gaussian, Inc.),
 the Gaussian(R) 98 system (copyright 1998, Gaussian, Inc.),
 the Gaussian(R) 94 system (copyright 1995, Gaussian, Inc.),
 the Gaussian 92(TM) system (copyright 1992, Gaussian, Inc.),
 the Gaussian 90(TM) system (copyright 1990, Gaussian, Inc.),
 the Gaussian 88(TM) system (copyright 1988, Gaussian, Inc.),
 the Gaussian 86(TM) system (copyright 1986, Carnegie Mellon
 University), and the Gaussian 82(TM) system (copyright 1983,
 Carnegie Mellon University). Gaussian is a federally registered
 trademark of Gaussian, Inc.
  
 This software contains proprietary and confidential information,
 including trade secrets, belonging to Gaussian, Inc.
  
 This software is provided under written license and may be
 used, copied, transmitted, or stored only in accord with that
 written license.
  
 The following legend is applicable only to US Government
 contracts under FAR:
  
                    RESTRICTED RIGHTS LEGEND
  
 Use, reproduction and disclosure by the US Government is
 subject to restrictions as set forth in subparagraphs (a)
 and (c) of the Commercial Computer Software - Restricted
 Rights clause in FAR 52.227-19.
  
 Gaussian, Inc.
 340 Quinnipiac St., Bldg. 40, Wallingford CT 06492
  
  
 ---------------------------------------------------------------
 Warning -- This program may not be used in any manner that
 competes with the business of Gaussian, Inc. or will provide
 assistance to any competitor of Gaussian, Inc.  The licensee
 of this program is prohibited from giving any competitor of
 Gaussian, Inc. access to this program.  By using this program,
 the user acknowledges that Gaussian, Inc. is engaged in the
 business of creating and licensing software in the field of
 computational chemistry and represents and warrants to the
 licensee that it is not a competitor of Gaussian, Inc. and that
 it will not use this program in any manner prohibited above.
 ---------------------------------------------------------------
  

 Cite this work as:
 Gaussian 09, Revision E.01,
 M. J. Frisch, G. W. Trucks, H. B. Schlegel, G. E. Scuseria, 
 M. A. Robb, J. R. Cheeseman, G. Scalmani, V. Barone, B. Mennucci, 
 G. A. Petersson, H. Nakatsuji, M. Caricato, X. Li, H. P. Hratchian, 
 A. F. Izmaylov, J. Bloino, G. Zheng, J. L. Sonnenberg, M. Hada, 
 M. Ehara, K. Toyota, R. Fukuda, J. Hasegawa, M. Ishida, T. Nakajima, 
 Y. Honda, O. Kitao, H. Nakai, T. Vreven, J. A. Montgomery, Jr., 
 J. E. Peralta, F. Ogliaro, M. Bearpark, J. J. Heyd, E. Brothers, 
 K. N. Kudin, V. N. Staroverov, T. Keith, R. Kobayashi, J. Normand, 
 K. Raghavachari, A. Rendell, J. C. Burant, S. S. Iyengar, J. Tomasi, 
 M. Cossi, N. Rega, J. M. Millam, M. Klene, J. E. Knox, J. B. Cross, 
 V. Bakken, C. Adamo, J. Jaramillo, R. Gomperts, R. E. Stratmann, 
 O. Yazyev, A. J. Austin, R. Cammi, C. Pomelli, J. W. Ochterski, 
 R. L. Martin, K. Morokuma, V. G. Zakrzewski, G. A. Voth, 
 P. Salvador, J. J. Dannenberg, S. Dapprich, A. D. Daniels, 
 O. Farkas, J. B. Foresman, J. V. Ortiz, J. Cioslowski, 
 and D. J. Fox, Gaussian, Inc., Wallingford CT, 2013.
 
 ******************************************
 Gaussian 09:  ES64L-G09RevE.01 30-Nov-2015
                 8-Jun-2021 
 ******************************************
 %chk=3_pp_opt.chk
 ---------------------------------------------------
 #p opt b3lyp/6-31g(d,p) geom=connectivity SCF=tight
 ---------------------------------------------------
 1/14=-1,18=20,19=15,26=3,38=1,57=2/1,3;
 2/9=110,12=2,17=6,18=5,40=1/2;
 3/5=1,6=6,7=101,11=2,16=1,25=1,30=1,71=1,74=-5/1,2,3;
 4//1;
 5/5=2,32=2,38=5/2;
 6/7=2,8=2,9=2,10=2,28=1/1;
 7//1,2,3,16;
 1/14=-1,18=20,19=15,26=3/3(2);
 2/9=110/2;
 99//99;
 2/9=110/2;
 3/5=1,6=6,7=101,11=2,16=1,25=1,30=1,71=1,74=-5/1,2,3;
 4/5=5,16=3,69=1/1;
 5/5=2,32=2,38=5/2;
 7//1,2,3,16;
 1/14=-1,18=20,19=15,26=3/3(-5);
 2/9=110/2;
 6/7=2,8=2,9=2,10=2,19=2,28=1/1;
 99/9=1/99;
 Leave Link    1 at Tue Jun  8 21:55:55 2021, MaxMem=           0 cpu:         0.0
 (Enter /opt/app/gaussian09/e01/g09/l101.exe)
 -------------------
 Title Card Required
 -------------------
 Symbolic Z-matrix:
 Charge =  1 Multiplicity = 1
 C                    -4.92914  -1.04459   0.44063 
 H                    -5.93006  -0.98468   0.81409 
 C                    -4.27328   0.08389   0.07602 
 H                    -3.27236   0.02399  -0.29745 
 C                    -4.96855   1.45248   0.19921 
 H                    -5.96946   1.51238   0.57267 
 C                    -4.31268   2.58096  -0.1654 
 H                    -3.31176   2.52105  -0.53886 
 C                    -4.23387  -2.41317   0.31744 
 H                    -3.23296  -2.47308  -0.05603 
 C                    -4.88974  -3.54166   0.68204 
 H                    -5.89065  -3.48175   1.05551 
 N                    -4.38189   5.02673  -0.39024 
 C                    -5.00795   3.94954  -0.04221 
 H                    -6.00887   4.00945   0.33125 
 N                    -4.22607  -4.84803   0.56445 
 C                    -5.23306  -5.88794   0.30859 
 H                    -4.74999  -6.83884   0.22299 
 H                    -5.93198  -5.91456   1.11835 
 H                    -5.7502   -5.66737  -0.6018 
 C                    -3.26588  -4.81147  -0.54802 
 H                    -3.78301  -4.59089  -1.45842 
 H                    -2.5329   -4.05453  -0.36179 
 H                    -2.7828   -5.76237  -0.63362 
 C                    -3.0068    4.94443  -0.90331 
 H                    -2.5115    4.10438  -0.46298 
 H                    -3.02927   4.82807  -1.96673 
 H                    -2.47872   5.84094  -0.65369 
 C                    -5.04556   6.33311  -0.27264 
 H                    -4.85048   6.74647   0.69481 
 H                    -4.66869   6.99366  -1.02533 
 H                    -6.10059   6.2101   -0.40182 
 
 NAtoms=     32 NQM=       32 NQMF=       0 NMMI=      0 NMMIF=      0
                NMic=       0 NMicF=      0.
                    Isotopes and Nuclear Properties:
 (Nuclear quadrupole moments (NQMom) in fm**2, nuclear magnetic moments (NMagM)
  in nuclear magnetons)

  Atom         1           2           3           4           5           6           7           8           9          10
 IAtWgt=          12           1          12           1          12           1          12           1          12           1
 AtmWgt=  12.0000000   1.0078250  12.0000000   1.0078250  12.0000000   1.0078250  12.0000000   1.0078250  12.0000000   1.0078250
 NucSpn=           0           1           0           1           0           1           0           1           0           1
 AtZEff=   0.0000000   0.0000000   0.0000000   0.0000000   0.0000000   0.0000000   0.0000000   0.0000000   0.0000000   0.0000000
 NQMom=    0.0000000   0.0000000   0.0000000   0.0000000   0.0000000   0.0000000   0.0000000   0.0000000   0.0000000   0.0000000
 NMagM=    0.0000000   2.7928460   0.0000000   2.7928460   0.0000000   2.7928460   0.0000000   2.7928460   0.0000000   2.7928460
 AtZNuc=   6.0000000   1.0000000   6.0000000   1.0000000   6.0000000   1.0000000   6.0000000   1.0000000   6.0000000   1.0000000

  Atom        11          12          13          14          15          16          17          18          19          20
 IAtWgt=          12           1          14          12           1          14          12           1           1           1
 AtmWgt=  12.0000000   1.0078250  14.0030740  12.0000000   1.0078250  14.0030740  12.0000000   1.0078250   1.0078250   1.0078250
 NucSpn=           0           1           2           0           1           2           0           1           1           1
 AtZEff=   0.0000000   0.0000000   0.0000000   0.0000000   0.0000000   0.0000000   0.0000000   0.0000000   0.0000000   0.0000000
 NQMom=    0.0000000   0.0000000   2.0440000   0.0000000   0.0000000   2.0440000   0.0000000   0.0000000   0.0000000   0.0000000
 NMagM=    0.0000000   2.7928460   0.4037610   0.0000000   2.7928460   0.4037610   0.0000000   2.7928460   2.7928460   2.7928460
 AtZNuc=   6.0000000   1.0000000   7.0000000   6.0000000   1.0000000   7.0000000   6.0000000   1.0000000   1.0000000   1.0000000

  Atom        21          22          23          24          25          26          27          28          29          30
 IAtWgt=          12           1           1           1          12           1           1           1          12           1
 AtmWgt=  12.0000000   1.0078250   1.0078250   1.0078250  12.0000000   1.0078250   1.0078250   1.0078250  12.0000000   1.0078250
 NucSpn=           0           1           1           1           0           1           1           1           0           1
 AtZEff=   0.0000000   0.0000000   0.0000000   0.0000000   0.0000000   0.0000000   0.0000000   0.0000000   0.0000000   0.0000000
 NQMom=    0.0000000   0.0000000   0.0000000   0.0000000   0.0000000   0.0000000   0.0000000   0.0000000   0.0000000   0.0000000
 NMagM=    0.0000000   2.7928460   2.7928460   2.7928460   0.0000000   2.7928460   2.7928460   2.7928460   0.0000000   2.7928460
 AtZNuc=   6.0000000   1.0000000   1.0000000   1.0000000   6.0000000   1.0000000   1.0000000   1.0000000   6.0000000   1.0000000

  Atom        31          32
 IAtWgt=           1           1
 AtmWgt=   1.0078250   1.0078250
 NucSpn=           1           1
 AtZEff=   0.0000000   0.0000000
 NQMom=    0.0000000   0.0000000
 NMagM=    2.7928460   2.7928460
 AtZNuc=   1.0000000   1.0000000
 Leave Link  101 at Tue Jun  8 21:55:57 2021, MaxMem=    33554432 cpu:         0.1
 (Enter /opt/app/gaussian09/e01/g09/l103.exe)

 GradGradGradGradGradGradGradGradGradGradGradGradGradGradGradGradGradGrad
 Berny optimization.
 Initialization pass.
                           ----------------------------
                           !    Initial Parameters    !
                           ! (Angstroms and Degrees)  !
 --------------------------                            --------------------------
 ! Name  Definition              Value          Derivative Info.                !
 --------------------------------------------------------------------------------
 ! R1    R(1,2)                  1.07           estimate D2E/DX2                !
 ! R2    R(1,3)                  1.3552         estimate D2E/DX2                !
 ! R3    R(1,9)                  1.54           estimate D2E/DX2                !
 ! R4    R(3,4)                  1.07           estimate D2E/DX2                !
 ! R5    R(3,5)                  1.54           estimate D2E/DX2                !
 ! R6    R(5,6)                  1.07           estimate D2E/DX2                !
 ! R7    R(5,7)                  1.3552         estimate D2E/DX2                !
 ! R8    R(7,8)                  1.07           estimate D2E/DX2                !
 ! R9    R(7,14)                 1.54           estimate D2E/DX2                !
 ! R10   R(9,10)                 1.07           estimate D2E/DX2                !
 ! R11   R(9,11)                 1.3552         estimate D2E/DX2                !
 ! R12   R(11,12)                1.07           estimate D2E/DX2                !
 ! R13   R(11,16)                1.47           estimate D2E/DX2                !
 ! R14   R(13,14)                1.2936         estimate D2E/DX2                !
 ! R15   R(13,25)                1.47           estimate D2E/DX2                !
 ! R16   R(13,29)                1.47           estimate D2E/DX2                !
 ! R17   R(14,15)                1.07           estimate D2E/DX2                !
 ! R18   R(16,17)                1.47           estimate D2E/DX2                !
 ! R19   R(16,21)                1.47           estimate D2E/DX2                !
 ! R20   R(17,18)                1.07           estimate D2E/DX2                !
 ! R21   R(17,19)                1.07           estimate D2E/DX2                !
 ! R22   R(17,20)                1.07           estimate D2E/DX2                !
 ! R23   R(21,22)                1.07           estimate D2E/DX2                !
 ! R24   R(21,23)                1.07           estimate D2E/DX2                !
 ! R25   R(21,24)                1.07           estimate D2E/DX2                !
 ! R26   R(25,26)                1.07           estimate D2E/DX2                !
 ! R27   R(25,27)                1.07           estimate D2E/DX2                !
 ! R28   R(25,28)                1.07           estimate D2E/DX2                !
 ! R29   R(29,30)                1.07           estimate D2E/DX2                !
 ! R30   R(29,31)                1.07           estimate D2E/DX2                !
 ! R31   R(29,32)                1.07           estimate D2E/DX2                !
 ! A1    A(2,1,3)              120.0            estimate D2E/DX2                !
 ! A2    A(2,1,9)              120.0            estimate D2E/DX2                !
 ! A3    A(3,1,9)              120.0            estimate D2E/DX2                !
 ! A4    A(1,3,4)              120.0            estimate D2E/DX2                !
 ! A5    A(1,3,5)              120.0            estimate D2E/DX2                !
 ! A6    A(4,3,5)              120.0            estimate D2E/DX2                !
 ! A7    A(3,5,6)              120.0            estimate D2E/DX2                !
 ! A8    A(3,5,7)              120.0            estimate D2E/DX2                !
 ! A9    A(6,5,7)              120.0            estimate D2E/DX2                !
 ! A10   A(5,7,8)              120.0            estimate D2E/DX2                !
 ! A11   A(5,7,14)             120.0            estimate D2E/DX2                !
 ! A12   A(8,7,14)             120.0            estimate D2E/DX2                !
 ! A13   A(1,9,10)             120.0            estimate D2E/DX2                !
 ! A14   A(1,9,11)             120.0            estimate D2E/DX2                !
 ! A15   A(10,9,11)            120.0            estimate D2E/DX2                !
 ! A16   A(9,11,12)            120.0            estimate D2E/DX2                !
 ! A17   A(9,11,16)            120.0            estimate D2E/DX2                !
 ! A18   A(12,11,16)           120.0            estimate D2E/DX2                !
 ! A19   A(14,13,25)           120.0            estimate D2E/DX2                !
 ! A20   A(14,13,29)           120.0            estimate D2E/DX2                !
 ! A21   A(25,13,29)           120.0            estimate D2E/DX2                !
 ! A22   A(7,14,13)            120.0            estimate D2E/DX2                !
 ! A23   A(7,14,15)            120.0            estimate D2E/DX2                !
 ! A24   A(13,14,15)           120.0            estimate D2E/DX2                !
 ! A25   A(11,16,17)           109.4712         estimate D2E/DX2                !
 ! A26   A(11,16,21)           109.4712         estimate D2E/DX2                !
 ! A27   A(17,16,21)           109.4712         estimate D2E/DX2                !
 ! A28   A(16,17,18)           109.4712         estimate D2E/DX2                !
 ! A29   A(16,17,19)           109.4712         estimate D2E/DX2                !
 ! A30   A(16,17,20)           109.4712         estimate D2E/DX2                !
 ! A31   A(18,17,19)           109.4712         estimate D2E/DX2                !
 ! A32   A(18,17,20)           109.4712         estimate D2E/DX2                !
 ! A33   A(19,17,20)           109.4712         estimate D2E/DX2                !
 ! A34   A(16,21,22)           109.4712         estimate D2E/DX2                !
 ! A35   A(16,21,23)           109.4712         estimate D2E/DX2                !
 ! A36   A(16,21,24)           109.4712         estimate D2E/DX2                !
 ! A37   A(22,21,23)           109.4712         estimate D2E/DX2                !
 ! A38   A(22,21,24)           109.4712         estimate D2E/DX2                !
 ! A39   A(23,21,24)           109.4712         estimate D2E/DX2                !
 ! A40   A(13,25,26)           109.4712         estimate D2E/DX2                !
 ! A41   A(13,25,27)           109.4712         estimate D2E/DX2                !
 ! A42   A(13,25,28)           109.4712         estimate D2E/DX2                !
 ! A43   A(26,25,27)           109.4712         estimate D2E/DX2                !
 ! A44   A(26,25,28)           109.4712         estimate D2E/DX2                !
 ! A45   A(27,25,28)           109.4712         estimate D2E/DX2                !
 ! A46   A(13,29,30)           109.4712         estimate D2E/DX2                !
 ! A47   A(13,29,31)           109.4712         estimate D2E/DX2                !
 ! A48   A(13,29,32)           109.4712         estimate D2E/DX2                !
 ! A49   A(30,29,31)           109.4712         estimate D2E/DX2                !
 ! A50   A(30,29,32)           109.4712         estimate D2E/DX2                !
 ! A51   A(31,29,32)           109.4712         estimate D2E/DX2                !
 ! D1    D(2,1,3,4)            179.9999         estimate D2E/DX2                !
 ! D2    D(2,1,3,5)              0.0001         estimate D2E/DX2                !
 ! D3    D(9,1,3,4)             -0.0002         estimate D2E/DX2                !
 ! D4    D(9,1,3,5)            179.9999         estimate D2E/DX2                !
 ! D5    D(2,1,9,10)           179.9998         estimate D2E/DX2                !
 ! D6    D(2,1,9,11)             0.0            estimate D2E/DX2                !
 ! D7    D(3,1,9,10)            -0.0001         estimate D2E/DX2                !
 ! D8    D(3,1,9,11)          -179.9999         estimate D2E/DX2                !
 ! D9    D(1,3,5,6)             -0.0001         estimate D2E/DX2                !
 ! D10   D(1,3,5,7)            179.9998         estimate D2E/DX2                !
 ! D11   D(4,3,5,6)           -179.9999         estimate D2E/DX2                !
 ! D12   D(4,3,5,7)              0.0            estimate D2E/DX2                !
 ! D13   D(3,5,7,8)             -0.0002         estimate D2E/DX2                !
 ! D14   D(3,5,7,14)          -180.0            estimate D2E/DX2                !
 ! D15   D(6,5,7,8)            179.9997         estimate D2E/DX2                !
 ! D16   D(6,5,7,14)            -0.0001         estimate D2E/DX2                !
 ! D17   D(5,7,14,13)          179.9999         estimate D2E/DX2                !
 ! D18   D(5,7,14,15)           -0.0002         estimate D2E/DX2                !
 ! D19   D(8,7,14,13)            0.0001         estimate D2E/DX2                !
 ! D20   D(8,7,14,15)          180.0            estimate D2E/DX2                !
 ! D21   D(1,9,11,12)           -0.0002         estimate D2E/DX2                !
 ! D22   D(1,9,11,16)          179.9998         estimate D2E/DX2                !
 ! D23   D(10,9,11,12)         180.0            estimate D2E/DX2                !
 ! D24   D(10,9,11,16)           0.0            estimate D2E/DX2                !
 ! D25   D(9,11,16,17)        -150.0            estimate D2E/DX2                !
 ! D26   D(9,11,16,21)         -30.0            estimate D2E/DX2                !
 ! D27   D(12,11,16,17)         30.0            estimate D2E/DX2                !
 ! D28   D(12,11,16,21)        150.0            estimate D2E/DX2                !
 ! D29   D(25,13,14,7)           0.0001         estimate D2E/DX2                !
 ! D30   D(25,13,14,15)       -179.9998         estimate D2E/DX2                !
 ! D31   D(29,13,14,7)        -179.9999         estimate D2E/DX2                !
 ! D32   D(29,13,14,15)          0.0002         estimate D2E/DX2                !
 ! D33   D(14,13,25,26)        -30.0            estimate D2E/DX2                !
 ! D34   D(14,13,25,27)         90.0            estimate D2E/DX2                !
 ! D35   D(14,13,25,28)       -150.0            estimate D2E/DX2                !
 ! D36   D(29,13,25,26)        150.0            estimate D2E/DX2                !
 ! D37   D(29,13,25,27)        -90.0            estimate D2E/DX2                !
 ! D38   D(29,13,25,28)         30.0            estimate D2E/DX2                !
 ! D39   D(14,13,29,30)         90.0            estimate D2E/DX2                !
 ! D40   D(14,13,29,31)       -150.0            estimate D2E/DX2                !
 ! D41   D(14,13,29,32)        -30.0            estimate D2E/DX2                !
 ! D42   D(25,13,29,30)        -90.0            estimate D2E/DX2                !
 ! D43   D(25,13,29,31)         30.0            estimate D2E/DX2                !
 ! D44   D(25,13,29,32)        150.0            estimate D2E/DX2                !
 ! D45   D(11,16,17,18)       -180.0            estimate D2E/DX2                !
 ! D46   D(11,16,17,19)        -60.0            estimate D2E/DX2                !
 ! D47   D(11,16,17,20)         60.0            estimate D2E/DX2                !
 ! D48   D(21,16,17,18)         60.0            estimate D2E/DX2                !
 ! D49   D(21,16,17,19)        180.0            estimate D2E/DX2                !
 ! D50   D(21,16,17,20)        -60.0            estimate D2E/DX2                !
 ! D51   D(11,16,21,22)        -60.0            estimate D2E/DX2                !
 ! D52   D(11,16,21,23)         60.0            estimate D2E/DX2                !
 ! D53   D(11,16,21,24)        180.0            estimate D2E/DX2                !
 ! D54   D(17,16,21,22)         60.0            estimate D2E/DX2                !
 ! D55   D(17,16,21,23)       -180.0            estimate D2E/DX2                !
 ! D56   D(17,16,21,24)        -60.0            estimate D2E/DX2                !
 --------------------------------------------------------------------------------
 Trust Radius=3.00D-01 FncErr=1.00D-07 GrdErr=1.00D-06
 Number of steps in this run=    148 maximum allowed number of steps=    192.
 GradGradGradGradGradGradGradGradGradGradGradGradGradGradGradGradGradGrad

 Leave Link  103 at Tue Jun  8 21:55:58 2021, MaxMem=    33554432 cpu:         0.0
 (Enter /opt/app/gaussian09/e01/g09/l202.exe)
                          Input orientation:                          
 ---------------------------------------------------------------------
 Center     Atomic      Atomic             Coordinates (Angstroms)
 Number     Number       Type             X           Y           Z
 ---------------------------------------------------------------------
      1          6           0       -4.929141   -1.044589    0.440626
      2          1           0       -5.930057   -0.984683    0.814092
      3          6           0       -4.273275    0.083892    0.076019
      4          1           0       -3.272358    0.023986   -0.297445
      5          6           0       -4.968545    1.452477    0.199207
      6          1           0       -5.969462    1.512383    0.572673
      7          6           0       -4.312679    2.580959   -0.165396
      8          1           0       -3.311760    2.521053   -0.538858
      9          6           0       -4.233872   -2.413174    0.317436
     10          1           0       -3.232956   -2.473080   -0.056033
     11          6           0       -4.889738   -3.541655    0.682041
     12          1           0       -5.890653   -3.481749    1.055511
     13          7           0       -4.381893    5.026731   -0.390236
     14          6           0       -5.007948    3.949544   -0.042208
     15          1           0       -6.008867    4.009449    0.331254
     16          7           0       -4.226074   -4.848033    0.564446
     17          6           0       -5.233062   -5.887943    0.308591
     18          1           0       -4.749987   -6.838843    0.222995
     19          1           0       -5.931980   -5.914558    1.118347
     20          1           0       -5.750196   -5.667368   -0.601804
     21          6           0       -3.265877   -4.811467   -0.548022
     22          1           0       -3.783012   -4.590893   -1.458417
     23          1           0       -2.532900   -4.054526   -0.361787
     24          1           0       -2.782802   -5.762368   -0.633618
     25          6           0       -3.006801    4.944430   -0.903315
     26          1           0       -2.511498    4.104380   -0.462984
     27          1           0       -3.029267    4.828069   -1.966732
     28          1           0       -2.478721    5.840935   -0.653693
     29          6           0       -5.045558    6.333108   -0.272645
     30          1           0       -4.850479    6.746467    0.694815
     31          1           0       -4.668687    6.993657   -1.025335
     32          1           0       -6.100586    6.210100   -0.401821
 ---------------------------------------------------------------------
                    Distance matrix (angstroms):
                    1          2          3          4          5
     1  C    0.000000
     2  H    1.070000   0.000000
     3  C    1.355200   2.105120   0.000000
     4  H    2.105120   3.052261   1.070000   0.000000
     5  C    2.509019   2.691159   1.540000   2.272510   0.000000
     6  H    2.763659   2.509019   2.272510   3.201062   1.070000
     7  C    3.727182   4.035977   2.509019   2.763659   1.355200
     8  H    4.035977   4.579972   2.691159   2.509019   2.105120
     9  C    1.540000   2.272510   2.509019   2.691159   3.936621
    10  H    2.272510   3.201062   2.763659   2.509019   4.299700
    11  C    2.509019   2.763659   3.727182   4.035977   5.018037
    12  H    2.691159   2.509019   4.035977   4.579972   5.092163
    13  N    6.152295   6.323315   4.965969   5.125147   3.669727
    14  C    5.018037   5.092163   3.936621   4.299700   2.509019
    15  H    5.169243   5.018037   4.299700   4.875208   2.763659
    16  N    3.869860   4.229817   4.956276   5.038750   6.354612
    17  C    4.854676   4.978282   6.052941   6.257998   7.345999
    18  H    5.801107   6.001096   6.940686   7.039366   8.294235
    19  H    5.018127   4.939256   6.310242   6.659157   7.486403
    20  H    4.809457   4.895370   5.976432   6.214807   7.207274
    21  C    4.234766   4.857725   5.036747   4.841946   6.534097
    22  H    4.182851   4.772719   4.944539   4.785993   6.377737
    23  H    3.930084   4.727294   4.510775   4.145504   6.047658
    24  H    5.293223   5.901470   6.074854   5.816749   7.584528
    25  C    6.431945   6.830029   5.117410   4.964712   4.154242
    26  H    5.759635   6.262271   4.422523   4.154025   3.675346
    27  H    6.625180   7.066516   5.312966   5.091643   4.454965
    28  H    7.390029   7.788143   6.074245   5.881638   5.117150
    29  C    7.413010   7.450731   6.306400   6.553615   4.903991
    30  H    7.795598   7.807073   6.716098   6.976158   5.318448
    31  H    8.174979   8.284230   7.008151   7.145339   5.682789
    32  H    7.396790   7.298796   6.410757   6.802776   4.927243
                    6          7          8          9         10
     6  H    0.000000
     7  C    2.105120   0.000000
     8  H    3.052261   1.070000   0.000000
     9  C    4.299700   5.018037   5.092163   0.000000
    10  H    4.875208   5.169243   5.018037   1.070000   0.000000
    11  C    5.169243   6.207862   6.382558   1.355200   2.105120
    12  H    5.018037   6.382558   6.725053   2.105120   3.052261
    13  N    3.974696   2.457060   2.728680   7.474951   7.594664
    14  C    2.691159   1.540000   2.272510   6.419713   6.663399
    15  H    2.509019   2.272510   3.201062   6.663399   7.062497
    16  N    6.595025   7.465258   7.507108   2.447368   2.647957
    17  C    7.441562   8.531943   8.667224   3.615588   3.974249
    18  H    8.447034   9.437942   9.500346   4.456662   4.630240
    19  H    7.447055   8.743223   8.987292   3.972999   4.528539
    20  H    7.278482   8.384021   8.544014   3.705944   4.103393
    21  C    6.968243   7.475972   7.332670   2.727241   2.389810
    22  H    6.793811   7.306702   7.186615   2.845942   2.598917
    23  H    6.608605   6.872833   6.623913   2.459408   1.756284
    24  H    8.033177   8.495343   8.300833   3.771897   3.369815
    25  C    4.768107   2.799257   2.469531   7.558457   7.469170
    26  H    4.443934   2.377735   1.775697   6.786320   6.629412
    27  H    5.107553   3.153008   2.727810   7.687919   7.549771
    28  H    5.694349   3.772172   3.424727   8.494349   8.369523
    29  C    4.980717   3.824557   4.196270   8.803663   8.993408
    30  H    5.353753   4.287266   4.663016   9.188125   9.390431
    31  H    5.855767   4.509783   4.699159   9.512128   9.623928
    32  H    4.799518   4.052551   4.626596   8.852277   9.150983
                   11         12         13         14         15
    11  C    0.000000
    12  H    1.070000   0.000000
    13  N    8.650140   8.761323   0.000000
    14  C    7.527056   7.563615   1.293600   0.000000
    15  H    7.641641   7.527056   2.049989   1.070000   0.000000
    16  N    1.470000   2.208778   9.922029   8.853062   9.038126
    17  C    2.400500   2.603859  10.970093   9.846313   9.927777
    18  H    3.331921   3.642016  11.887110  10.794729  10.921627
    19  H    2.628174   2.433971  11.153045   9.975030   9.955469
    20  H    2.628174   2.746516  10.783356   9.661732   9.725137
    21  C    2.400500   3.350958   9.902552   8.946841   9.279315
    22  H    2.628174   3.462973   9.695274   8.743293   9.062187
    23  H    2.628174   3.689352   9.267622   8.384100   8.808538
    24  H    3.331921   4.208695  10.909673   9.981095  10.335709
    25  C    8.835862   9.118887   1.470000   2.394972   3.377979
    26  H    8.088818   8.442386   2.086720   2.536393   3.587675
    27  H    8.973831   9.293792   2.086720   2.896684   3.850830
    28  H    9.779069  10.073485   2.086720   3.216872   4.097119
    29  C    9.922029   9.940302   1.470000   2.394972   2.586899
    30  H   10.288205  10.287296   2.086720   2.896684   2.994212
    31  H   10.675055  10.749756   2.086720   3.216872   3.541456
    32  H    9.886235   9.803051   2.086720   2.536393   2.321351
                   16         17         18         19         20
    16  N    0.000000
    17  C    1.470000   0.000000
    18  H    2.086720   1.070000   0.000000
    19  H    2.086720   1.070000   1.747303   0.000000
    20  H    2.086720   1.070000   1.747303   1.747303   0.000000
    21  C    1.470000   2.400500   2.628174   3.331921   2.628174
    22  H    2.086720   2.628174   2.969085   3.606919   2.400500
    23  H    2.086720   3.331921   3.606919   4.147803   3.606919
    24  H    2.086720   2.628174   2.400500   3.606919   2.969085
    25  C    9.976637  11.124983  11.964648  11.426348  10.964825
    26  H    9.172845  10.385026  11.190868  10.704178  10.295412
    27  H   10.073041  11.174378  11.994692  11.547619  10.927977
    28  H   10.899135  12.086313  12.911390  12.379691  11.964375
    29  C   11.242339  12.236301  13.184586  12.358233  12.025651
    30  H   11.612032  12.646100  13.593872  12.714188  12.513752
    31  H   11.956125  12.962773  13.888952  13.145848  12.714189
    32  H   11.257431  12.149893  13.133523  12.220747  11.884317
                   21         22         23         24         25
    21  C    0.000000
    22  H    1.070000   0.000000
    23  H    1.070000   1.747303   0.000000
    24  H    1.070000   1.747303   1.747303   0.000000
    25  C    9.765802   9.582955   9.027682  10.712536   0.000000
    26  H    8.948109   8.843947   8.159562   9.871952   1.070000
    27  H    9.746250   9.462735   9.040062  10.676858   1.070000
    28  H   10.681969  10.543803   9.899914  11.607304   1.070000
    29  C   11.289139  11.060464  10.687578  12.310601   2.546115
    30  H   11.732069  11.589288  11.097253  12.747979   3.033233
    31  H   11.897759  11.626426  11.272277  12.900627   2.641228
    32  H   11.381207  11.097251  10.867038  12.425836   3.380076
                   26         27         28         29         30
    26  H    0.000000
    27  H    1.747303   0.000000
    28  H    1.747303   1.747303   0.000000
    29  C    3.380076   3.033233   2.641228   0.000000
    30  H    3.713751   3.752451   2.874664   1.070000   0.000000
    31  H    3.649332   2.874664   2.502565   1.070000   1.747303
    32  H    4.161652   3.713751   3.649332   1.070000   1.747303
                   31         32
    31  H    0.000000
    32  H    1.747303   0.000000
 Stoichiometry    C11H19N2(1+)
 Framework group  C1[X(C11H19N2)]
 Deg. of freedom    90
 Full point group                 C1      NOp   1
 Largest Abelian subgroup         C1      NOp   1
 Largest concise Abelian subgroup C1      NOp   1
                         Standard orientation:                         
 ---------------------------------------------------------------------
 Center     Atomic      Atomic             Coordinates (Angstroms)
 Number     Number       Type             X           Y           Z
 ---------------------------------------------------------------------
      1          6           0       -1.216127   -0.612614   -0.146863
      2          1           0       -1.185123   -1.679734   -0.074795
      3          6           0       -0.063639    0.100363   -0.145921
      4          1           0       -0.094644    1.167483   -0.217990
      5          6           0        1.290630   -0.625290   -0.041128
      6          1           0        1.321635   -1.692410    0.030940
      7          6           0        2.443119    0.087688   -0.040189
      8          1           0        2.412114    1.154807   -0.112262
      9          6           0       -2.570397    0.113039   -0.251653
     10          1           0       -2.601402    1.180159   -0.323717
     11          6           0       -3.722885   -0.599938   -0.252593
     12          1           0       -3.691880   -1.667059   -0.180529
     13          7           0        4.897491    0.042604    0.065496
     14          6           0        3.797388   -0.637965    0.064603
     15          1           0        3.828393   -1.705085    0.136675
     16          7           0       -5.015598    0.092731   -0.352615
     17          6           0       -6.044638   -0.686238    0.351078
     18          1           0       -6.985591   -0.182050    0.278273
     19          1           0       -6.124285   -1.656062   -0.093891
     20          1           0       -5.773066   -0.787606    1.381065
     21          6           0       -4.906176    1.425106    0.258698
     22          1           0       -4.634605    1.323738    1.288685
     23          1           0       -4.157147    1.992110   -0.253514
     24          1           0       -5.847130    1.929294    0.185892
     25          6           0        4.854895    1.508647   -0.033514
     26          1           0        3.993077    1.803311   -0.595067
     27          1           0        4.802481    1.931053    0.948181
     28          1           0        5.738124    1.858696   -0.525726
     29          6           0        6.190203   -0.650065    0.165522
     30          1           0        6.545934   -0.884827   -0.815927
     31          1           0        6.897152   -0.016364    0.659025
     32          1           0        6.068476   -1.553192    0.726276
 ---------------------------------------------------------------------
 Rotational constants (GHZ):      3.6830858      0.1609967      0.1555521
 Leave Link  202 at Tue Jun  8 21:55:59 2021, MaxMem=    33554432 cpu:         0.0
 (Enter /opt/app/gaussian09/e01/g09/l301.exe)
 Standard basis: 6-31G(d,p) (6D, 7F)
 Ernie: Thresh=  0.10000D-02 Tol=  0.10000D-05 Strict=F.
 There are   290 symmetry adapted cartesian basis functions of A   symmetry.
 There are   290 symmetry adapted basis functions of A   symmetry.
   290 basis functions,   497 primitive gaussians,   290 cartesian basis functions
    49 alpha electrons       49 beta electrons
       nuclear repulsion energy       702.3380876185 Hartrees.
 IExCor=  402 DFT=T Ex+Corr=B3LYP ExCW=0 ScaHFX=  0.200000
 ScaDFX=  0.800000  0.720000  1.000000  0.810000 ScalE2=  1.000000  1.000000
 IRadAn=      0 IRanWt=     -1 IRanGd=            0 ICorTp=0 IEmpDi=  4
 NAtoms=   32 NActive=   32 NUniq=   32 SFac= 1.00D+00 NAtFMM=   60 NAOKFM=F Big=F
 Integral buffers will be    131072 words long.
 Raffenetti 2 integral format.
 Two-electron integral symmetry is turned on.
 Leave Link  301 at Tue Jun  8 21:56:00 2021, MaxMem=    33554432 cpu:         0.0
 (Enter /opt/app/gaussian09/e01/g09/l302.exe)
 NPDir=0 NMtPBC=     1 NCelOv=     1 NCel=       1 NClECP=     1 NCelD=      1
         NCelK=      1 NCelE2=     1 NClLst=     1 CellRange=     0.0.
 One-electron integrals computed using PRISM.
 NBasis=   290 RedAO= T EigKep=  1.66D-03  NBF=   290
 NBsUse=   290 1.00D-06 EigRej= -1.00D+00 NBFU=   290
 Precomputing XC quadrature grid using
 IXCGrd= 4 IRadAn=           0 IRanWt=          -1 IRanGd=           0 AccXCQ= 0.00D+00.
 Generated NRdTot=       0 NPtTot=           0 NUsed=           0 NTot=          32
 NSgBfM=   281   281   281   281   281 MxSgAt=    32 MxSgA2=    32.
 Leave Link  302 at Tue Jun  8 21:56:03 2021, MaxMem=    33554432 cpu:         0.9
 (Enter /opt/app/gaussian09/e01/g09/l303.exe)
 DipDrv:  MaxL=1.
 Leave Link  303 at Tue Jun  8 21:56:03 2021, MaxMem=    33554432 cpu:         0.0
 (Enter /opt/app/gaussian09/e01/g09/l401.exe)
 ExpMin= 1.61D-01 ExpMax= 4.17D+03 ExpMxC= 6.27D+02 IAcc=1 IRadAn=         1 AccDes= 0.00D+00
 Harris functional with IExCor=  402 and IRadAn=       1 diagonalized for initial guess.
 HarFok:  IExCor=  402 AccDes= 0.00D+00 IRadAn=         1 IDoV= 1 UseB2=F ITyADJ=14
 ICtDFT=  3500011 ScaDFX=  1.000000  1.000000  1.000000  1.000000
 FoFCou: FMM=F IPFlag=           0 FMFlag=      100000 FMFlg1=           0
         NFxFlg=           0 DoJE=T BraDBF=F KetDBF=T FulRan=T
         wScrn=  0.000000 ICntrl=     500 IOpCl=  0 I1Cent=   200000004 NGrid=           0
         NMat0=    1 NMatS0=      1 NMatT0=    0 NMatD0=    1 NMtDS0=    0 NMtDT0=    0
 Petite list used in FoFCou.
 Harris En= -539.881018261273    
 JPrj=0 DoOrth=F DoCkMO=F.
 Leave Link  401 at Tue Jun  8 21:56:08 2021, MaxMem=    33554432 cpu:         3.2
 (Enter /opt/app/gaussian09/e01/g09/l502.exe)
 Closed shell SCF:
 Using DIIS extrapolation, IDIIS=  1040.
 Integral symmetry usage will be decided dynamically.
 IVT=      274793 IEndB=      274793 NGot=    33554432 MDV=    33380670
 LenX=    33380670 LenY=    33296129
 Requested convergence on RMS density matrix=1.00D-08 within 128 cycles.
 Requested convergence on MAX density matrix=1.00D-06.
 Requested convergence on             energy=1.00D-06.
 No special actions if energy rises.
 Fock matrices will be formed incrementally for  20 cycles.
 Integral accuracy reduced to 1.0D-05 until final iterations.

 Cycle   1  Pass 0  IDiag  1:
 FoFJK:  IHMeth= 1 ICntrl=       0 DoSepK=F KAlg= 0 I1Cent=   0 FoldK=F
 IRaf= 630000000 NMat=   1 IRICut=       1 DoRegI=T DoRafI=F ISym2E= 0.
 FoFCou: FMM=F IPFlag=           0 FMFlag=      100000 FMFlg1=           0
         NFxFlg=           0 DoJE=F BraDBF=F KetDBF=F FulRan=T
         wScrn=  0.000000 ICntrl=       0 IOpCl=  0 I1Cent=           0 NGrid=           0
         NMat0=    1 NMatS0=      1 NMatT0=    0 NMatD0=    1 NMtDS0=    0 NMtDT0=    0
 Symmetry not used in FoFCou.
 E= -539.517723035651    
 DIIS: error= 2.42D-02 at cycle   1 NSaved=   1.
 NSaved= 1 IEnMin= 1 EnMin= -539.517723035651     IErMin= 1 ErrMin= 2.42D-02
 ErrMax= 2.42D-02  0.00D+00 EMaxC= 1.00D-01 BMatC= 2.89D-01 BMatP= 2.89D-01
 IDIUse=3 WtCom= 7.58D-01 WtEn= 2.42D-01
 Coeff-Com:  0.100D+01
 Coeff-En:   0.100D+01
 Coeff:      0.100D+01
 Gap=     0.045 Goal=   None    Shift=    0.000
 GapD=    0.045 DampG=0.250 DampE=0.500 DampFc=0.2500 IDamp=-1.
 Damping current iteration by 2.50D-01
 RMSDP=5.15D-03 MaxDP=2.21D-01              OVMax= 6.70D-01

 Cycle   2  Pass 0  IDiag  1:
 RMSU=  1.27D-03    CP:  9.86D-01
 E= -539.605156987303     Delta-E=       -0.087433951652 Rises=F Damp=T
 DIIS: error= 1.39D-02 at cycle   2 NSaved=   2.
 NSaved= 2 IEnMin= 2 EnMin= -539.605156987303     IErMin= 2 ErrMin= 1.39D-02
 ErrMax= 1.39D-02  0.00D+00 EMaxC= 1.00D-01 BMatC= 8.24D-02 BMatP= 2.89D-01
 IDIUse=3 WtCom= 8.61D-01 WtEn= 1.39D-01
 Coeff-Com: -0.553D+00 0.155D+01
 Coeff-En:   0.000D+00 0.100D+01
 Coeff:     -0.476D+00 0.148D+01
 Gap=    -0.018 Goal=   None    Shift=    0.000
 RMSDP=2.13D-03 MaxDP=9.16D-02 DE=-8.74D-02 OVMax= 6.50D-01

 Cycle   3  Pass 0  IDiag  1:
 RMSU=  2.08D-03    CP:  9.68D-01  7.49D-01
 E= -539.654976410490     Delta-E=       -0.049819423187 Rises=F Damp=F
 DIIS: error= 1.90D-02 at cycle   3 NSaved=   3.
 NSaved= 3 IEnMin= 3 EnMin= -539.654976410490     IErMin= 2 ErrMin= 1.39D-02
 ErrMax= 1.90D-02  0.00D+00 EMaxC= 1.00D-01 BMatC= 1.37D-01 BMatP= 8.24D-02
 IDIUse=2 WtCom= 0.00D+00 WtEn= 1.00D+00
 Coeff-En:   0.000D+00 0.391D+00 0.609D+00
 Coeff:      0.000D+00 0.391D+00 0.609D+00
 Gap=     0.229 Goal=   None    Shift=    0.000
 RMSDP=4.65D-03 MaxDP=2.71D-01 DE=-4.98D-02 OVMax= 7.55D-01

 Cycle   4  Pass 0  IDiag  1:
 RMSU=  1.66D-03    CP:  9.54D-01  3.00D+00 -3.89D-01
 E= -538.753631447646     Delta-E=        0.901344962844 Rises=F Damp=F
 DIIS: error= 3.55D-02 at cycle   4 NSaved=   4.
 NSaved= 4 IEnMin= 3 EnMin= -539.654976410490     IErMin= 2 ErrMin= 1.39D-02
 ErrMax= 3.55D-02  0.00D+00 EMaxC= 1.00D-01 BMatC= 6.46D-01 BMatP= 8.24D-02
 IDIUse=2 WtCom= 0.00D+00 WtEn= 1.00D+00
 Coeff-En:   0.000D+00 0.000D+00 0.777D+00 0.223D+00
 Coeff:      0.000D+00 0.000D+00 0.777D+00 0.223D+00
 Gap=     0.003 Goal=   None    Shift=    0.000
 RMSDP=3.58D-03 MaxDP=2.14D-01 DE= 9.01D-01 OVMax= 8.02D-01

 Cycle   5  Pass 0  IDiag  1:
 RMSU=  1.22D-03    CP:  9.76D-01  1.33D+00  1.87D-01 -1.42D-01
 E= -539.795124084713     Delta-E=       -1.041492637067 Rises=F Damp=F
 DIIS: error= 8.81D-03 at cycle   5 NSaved=   5.
 NSaved= 5 IEnMin= 5 EnMin= -539.795124084713     IErMin= 5 ErrMin= 8.81D-03
 ErrMax= 8.81D-03  0.00D+00 EMaxC= 1.00D-01 BMatC= 3.73D-02 BMatP= 8.24D-02
 IDIUse=3 WtCom= 9.12D-01 WtEn= 8.81D-02
 Coeff-Com: -0.233D+00 0.494D+00 0.353D+00 0.231D-01 0.363D+00
 Coeff-En:   0.000D+00 0.000D+00 0.194D+00 0.000D+00 0.806D+00
 Coeff:     -0.212D+00 0.450D+00 0.339D+00 0.210D-01 0.402D+00
 Gap=     0.094 Goal=   None    Shift=    0.000
 RMSDP=1.01D-03 MaxDP=5.31D-02 DE=-1.04D+00 OVMax= 1.33D-01

 Cycle   6  Pass 0  IDiag  1:
 RMSU=  5.64D-04    CP:  9.72D-01  1.05D+00  4.70D-01 -1.14D-01  6.19D-01
 E= -539.825561023567     Delta-E=       -0.030436938854 Rises=F Damp=F
 DIIS: error= 4.89D-03 at cycle   6 NSaved=   6.
 NSaved= 6 IEnMin= 6 EnMin= -539.825561023567     IErMin= 6 ErrMin= 4.89D-03
 ErrMax= 4.89D-03  0.00D+00 EMaxC= 1.00D-01 BMatC= 8.16D-03 BMatP= 3.73D-02
 IDIUse=3 WtCom= 9.51D-01 WtEn= 4.89D-02
 Coeff-Com: -0.189D+00 0.300D+00 0.942D-01-0.248D-01 0.286D+00 0.533D+00
 Coeff-En:   0.000D+00 0.000D+00 0.000D+00 0.000D+00 0.222D+00 0.778D+00
 Coeff:     -0.180D+00 0.285D+00 0.896D-01-0.236D-01 0.283D+00 0.545D+00
 Gap=     0.090 Goal=   None    Shift=    0.000
 RMSDP=4.01D-04 MaxDP=2.04D-02 DE=-3.04D-02 OVMax= 5.74D-02

 Cycle   7  Pass 0  IDiag  1:
 RMSU=  1.72D-04    CP:  9.73D-01  1.19D+00  4.01D-01 -1.65D-01  7.56D-01
                    CP:  6.38D-01
 E= -539.835483952695     Delta-E=       -0.009922929128 Rises=F Damp=F
 DIIS: error= 1.08D-03 at cycle   7 NSaved=   7.
 NSaved= 7 IEnMin= 7 EnMin= -539.835483952695     IErMin= 7 ErrMin= 1.08D-03
 ErrMax= 1.08D-03  0.00D+00 EMaxC= 1.00D-01 BMatC= 3.87D-04 BMatP= 8.16D-03
 IDIUse=3 WtCom= 9.89D-01 WtEn= 1.08D-02
 Coeff-Com: -0.510D-01 0.699D-01-0.422D-02-0.572D-02 0.718D-01 0.258D+00
 Coeff-Com:  0.662D+00
 Coeff-En:   0.000D+00 0.000D+00 0.000D+00 0.000D+00 0.000D+00 0.000D+00
 Coeff-En:   0.100D+01
 Coeff:     -0.504D-01 0.691D-01-0.417D-02-0.566D-02 0.710D-01 0.255D+00
 Coeff:      0.665D+00
 Gap=     0.090 Goal=   None    Shift=    0.000
 RMSDP=8.76D-05 MaxDP=5.03D-03 DE=-9.92D-03 OVMax= 1.54D-02

 Cycle   8  Pass 0  IDiag  1:
 RMSU=  6.24D-05    CP:  9.73D-01  1.20D+00  3.91D-01 -1.64D-01  7.66D-01
                    CP:  7.25D-01  8.51D-01
 E= -539.835833578302     Delta-E=       -0.000349625607 Rises=F Damp=F
 DIIS: error= 3.89D-04 at cycle   8 NSaved=   8.
 NSaved= 8 IEnMin= 8 EnMin= -539.835833578302     IErMin= 8 ErrMin= 3.89D-04
 ErrMax= 3.89D-04  0.00D+00 EMaxC= 1.00D-01 BMatC= 7.52D-05 BMatP= 3.87D-04
 IDIUse=3 WtCom= 9.96D-01 WtEn= 3.89D-03
 Coeff-Com: -0.115D-01 0.157D-01-0.145D-01-0.296D-03-0.665D-02 0.778D-01
 Coeff-Com:  0.399D+00 0.541D+00
 Coeff-En:   0.000D+00 0.000D+00 0.000D+00 0.000D+00 0.000D+00 0.000D+00
 Coeff-En:   0.978D-01 0.902D+00
 Coeff:     -0.114D-01 0.156D-01-0.144D-01-0.295D-03-0.663D-02 0.775D-01
 Coeff:      0.398D+00 0.542D+00
 Gap=     0.091 Goal=   None    Shift=    0.000
 RMSDP=3.20D-05 MaxDP=2.06D-03 DE=-3.50D-04 OVMax= 4.58D-03

 Cycle   9  Pass 0  IDiag  1:
 RMSU=  1.84D-05    CP:  9.73D-01  1.20D+00  3.95D-01 -1.65D-01  7.61D-01
                    CP:  7.22D-01  9.38D-01  7.15D-01
 E= -539.835904980455     Delta-E=       -0.000071402153 Rises=F Damp=F
 DIIS: error= 8.20D-05 at cycle   9 NSaved=   9.
 NSaved= 9 IEnMin= 9 EnMin= -539.835904980455     IErMin= 9 ErrMin= 8.20D-05
 ErrMax= 8.20D-05  0.00D+00 EMaxC= 1.00D-01 BMatC= 3.85D-06 BMatP= 7.52D-05
 IDIUse=1 WtCom= 1.00D+00 WtEn= 0.00D+00
 Coeff-Com: -0.229D-02 0.380D-02-0.744D-02 0.276D-03-0.108D-01 0.152D-01
 Coeff-Com:  0.108D+00 0.219D+00 0.673D+00
 Coeff:     -0.229D-02 0.380D-02-0.744D-02 0.276D-03-0.108D-01 0.152D-01
 Coeff:      0.108D+00 0.219D+00 0.673D+00
 Gap=     0.091 Goal=   None    Shift=    0.000
 RMSDP=9.46D-06 MaxDP=4.57D-04 DE=-7.14D-05 OVMax= 1.32D-03

 Initial convergence to 1.0D-05 achieved.  Increase integral accuracy.
 Cycle  10  Pass 1  IDiag  1:
 E= -539.836129297120     Delta-E=       -0.000224316665 Rises=F Damp=F
 DIIS: error= 3.17D-05 at cycle   1 NSaved=   1.
 NSaved= 1 IEnMin= 1 EnMin= -539.836129297120     IErMin= 1 ErrMin= 3.17D-05
 ErrMax= 3.17D-05  0.00D+00 EMaxC= 1.00D-01 BMatC= 9.34D-07 BMatP= 9.34D-07
 IDIUse=1 WtCom= 1.00D+00 WtEn= 0.00D+00
 Coeff-Com:  0.100D+01
 Coeff:      0.100D+01
 Gap=     0.090 Goal=   None    Shift=    0.000
 RMSDP=9.46D-06 MaxDP=4.57D-04 DE=-2.24D-04 OVMax= 1.21D-03

 Cycle  11  Pass 1  IDiag  1:
 RMSU=  1.06D-05    CP:  1.00D+00
 E= -539.836127425737     Delta-E=        0.000001871383 Rises=F Damp=F
 DIIS: error= 6.28D-05 at cycle   2 NSaved=   2.
 NSaved= 2 IEnMin= 1 EnMin= -539.836129297120     IErMin= 1 ErrMin= 3.17D-05
 ErrMax= 6.28D-05  0.00D+00 EMaxC= 1.00D-01 BMatC= 3.03D-06 BMatP= 9.34D-07
 IDIUse=1 WtCom= 1.00D+00 WtEn= 0.00D+00
 Coeff-Com:  0.652D+00 0.348D+00
 Coeff:      0.652D+00 0.348D+00
 Gap=     0.091 Goal=   None    Shift=    0.000
 RMSDP=6.25D-06 MaxDP=3.40D-04 DE= 1.87D-06 OVMax= 9.48D-04

 Cycle  12  Pass 1  IDiag  1:
 RMSU=  4.07D-06    CP:  1.00D+00  5.53D-01
 E= -539.836130255334     Delta-E=       -0.000002829597 Rises=F Damp=F
 DIIS: error= 1.22D-05 at cycle   3 NSaved=   3.
 NSaved= 3 IEnMin= 3 EnMin= -539.836130255334     IErMin= 3 ErrMin= 1.22D-05
 ErrMax= 1.22D-05  0.00D+00 EMaxC= 1.00D-01 BMatC= 4.66D-08 BMatP= 9.34D-07
 IDIUse=1 WtCom= 1.00D+00 WtEn= 0.00D+00
 Coeff-Com:  0.214D+00 0.143D+00 0.643D+00
 Coeff:      0.214D+00 0.143D+00 0.643D+00
 Gap=     0.091 Goal=   None    Shift=    0.000
 RMSDP=1.46D-06 MaxDP=8.66D-05 DE=-2.83D-06 OVMax= 2.63D-04

 Cycle  13  Pass 1  IDiag  1:
 RMSU=  1.09D-06    CP:  1.00D+00  6.13D-01  8.21D-01
 E= -539.836130279652     Delta-E=       -0.000000024318 Rises=F Damp=F
 DIIS: error= 8.14D-06 at cycle   4 NSaved=   4.
 NSaved= 4 IEnMin= 4 EnMin= -539.836130279652     IErMin= 4 ErrMin= 8.14D-06
 ErrMax= 8.14D-06  0.00D+00 EMaxC= 1.00D-01 BMatC= 2.54D-08 BMatP= 4.66D-08
 IDIUse=1 WtCom= 1.00D+00 WtEn= 0.00D+00
 Coeff-Com:  0.390D-02 0.142D-01 0.436D+00 0.545D+00
 Coeff:      0.390D-02 0.142D-01 0.436D+00 0.545D+00
 Gap=     0.091 Goal=   None    Shift=    0.000
 RMSDP=7.61D-07 MaxDP=3.64D-05 DE=-2.43D-08 OVMax= 1.35D-04

 Cycle  14  Pass 1  IDiag  1:
 RMSU=  3.11D-07    CP:  1.00D+00  5.91D-01  9.28D-01  5.51D-01
 E= -539.836130307495     Delta-E=       -0.000000027843 Rises=F Damp=F
 DIIS: error= 1.21D-06 at cycle   5 NSaved=   5.
 NSaved= 5 IEnMin= 5 EnMin= -539.836130307495     IErMin= 5 ErrMin= 1.21D-06
 ErrMax= 1.21D-06  0.00D+00 EMaxC= 1.00D-01 BMatC= 1.32D-09 BMatP= 2.54D-08
 IDIUse=1 WtCom= 1.00D+00 WtEn= 0.00D+00
 Coeff-Com: -0.915D-02-0.654D-03 0.203D+00 0.305D+00 0.502D+00
 Coeff:     -0.915D-02-0.654D-03 0.203D+00 0.305D+00 0.502D+00
 Gap=     0.091 Goal=   None    Shift=    0.000
 RMSDP=1.50D-07 MaxDP=8.60D-06 DE=-2.78D-08 OVMax= 2.00D-05

 Cycle  15  Pass 1  IDiag  1:
 RMSU=  9.64D-08    CP:  1.00D+00  5.94D-01  9.25D-01  5.84D-01  6.63D-01
 E= -539.836130308918     Delta-E=       -0.000000001423 Rises=F Damp=F
 DIIS: error= 3.46D-07 at cycle   6 NSaved=   6.
 NSaved= 6 IEnMin= 6 EnMin= -539.836130308918     IErMin= 6 ErrMin= 3.46D-07
 ErrMax= 3.46D-07  0.00D+00 EMaxC= 1.00D-01 BMatC= 6.86D-11 BMatP= 1.32D-09
 IDIUse=1 WtCom= 1.00D+00 WtEn= 0.00D+00
 Coeff-Com: -0.524D-02-0.203D-02 0.583D-01 0.993D-01 0.245D+00 0.605D+00
 Coeff:     -0.524D-02-0.203D-02 0.583D-01 0.993D-01 0.245D+00 0.605D+00
 Gap=     0.091 Goal=   None    Shift=    0.000
 RMSDP=3.56D-08 MaxDP=1.81D-06 DE=-1.42D-09 OVMax= 3.67D-06

 Cycle  16  Pass 1  IDiag  1:
 RMSU=  2.98D-08    CP:  1.00D+00  5.94D-01  9.26D-01  5.87D-01  7.13D-01
                    CP:  8.95D-01
 E= -539.836130308972     Delta-E=       -0.000000000054 Rises=F Damp=F
 DIIS: error= 1.69D-07 at cycle   7 NSaved=   7.
 NSaved= 7 IEnMin= 7 EnMin= -539.836130308972     IErMin= 7 ErrMin= 1.69D-07
 ErrMax= 1.69D-07  0.00D+00 EMaxC= 1.00D-01 BMatC= 1.46D-11 BMatP= 6.86D-11
 IDIUse=1 WtCom= 1.00D+00 WtEn= 0.00D+00
 Coeff-Com: -0.111D-02-0.106D-02 0.162D-02 0.709D-02 0.717D-01 0.344D+00
 Coeff-Com:  0.578D+00
 Coeff:     -0.111D-02-0.106D-02 0.162D-02 0.709D-02 0.717D-01 0.344D+00
 Coeff:      0.578D+00
 Gap=     0.091 Goal=   None    Shift=    0.000
 RMSDP=1.75D-08 MaxDP=1.07D-06 DE=-5.37D-11 OVMax= 2.21D-06

 Cycle  17  Pass 1  IDiag  1:
 RMSU=  1.13D-08    CP:  1.00D+00  5.94D-01  9.26D-01  5.90D-01  7.14D-01
                    CP:  9.47D-01  6.11D-01
 E= -539.836130308993     Delta-E=       -0.000000000021 Rises=F Damp=F
 DIIS: error= 5.74D-08 at cycle   8 NSaved=   8.
 NSaved= 8 IEnMin= 8 EnMin= -539.836130308993     IErMin= 8 ErrMin= 5.74D-08
 ErrMax= 5.74D-08  0.00D+00 EMaxC= 1.00D-01 BMatC= 2.32D-12 BMatP= 1.46D-11
 IDIUse=1 WtCom= 1.00D+00 WtEn= 0.00D+00
 Coeff-Com: -0.139D-03-0.520D-03-0.410D-02-0.686D-02 0.151D-01 0.920D-01
 Coeff-Com:  0.318D+00 0.587D+00
 Coeff:     -0.139D-03-0.520D-03-0.410D-02-0.686D-02 0.151D-01 0.920D-01
 Coeff:      0.318D+00 0.587D+00
 Gap=     0.091 Goal=   None    Shift=    0.000
 RMSDP=7.84D-09 MaxDP=2.65D-07 DE=-2.14D-11 OVMax= 1.27D-06

 SCF Done:  E(RB3LYP) =  -539.836130309     A.U. after   17 cycles
            NFock= 17  Conv=0.78D-08     -V/T= 2.0099
 KE= 5.345660547282D+02 PE=-2.640679736598D+03 EE= 8.639394639423D+02
 Leave Link  502 at Tue Jun  8 21:59:40 2021, MaxMem=    33554432 cpu:       211.3
 (Enter /opt/app/gaussian09/e01/g09/l601.exe)
 Copying SCF densities to generalized density rwf, IOpCl= 0 IROHF=0.

 **********************************************************************

            Population analysis using the SCF density.

 **********************************************************************

 Orbital symmetries:
       Occupied  (A) (A) (A) (A) (A) (A) (A) (A) (A) (A) (A) (A)
                 (A) (A) (A) (A) (A) (A) (A) (A) (A) (A) (A) (A)
                 (A) (A) (A) (A) (A) (A) (A) (A) (A) (A) (A) (A)
                 (A) (A) (A) (A) (A) (A) (A) (A) (A) (A) (A) (A)
                 (A)
       Virtual   (A) (A) (A) (A) (A) (A) (A) (A) (A) (A) (A) (A)
                 (A) (A) (A) (A) (A) (A) (A) (A) (A) (A) (A) (A)
                 (A) (A) (A) (A) (A) (A) (A) (A) (A) (A) (A) (A)
                 (A) (A) (A) (A) (A) (A) (A) (A) (A) (A) (A) (A)
                 (A) (A) (A) (A) (A) (A) (A) (A) (A) (A) (A) (A)
                 (A) (A) (A) (A) (A) (A) (A) (A) (A) (A) (A) (A)
                 (A) (A) (A) (A) (A) (A) (A) (A) (A) (A) (A) (A)
                 (A) (A) (A) (A) (A) (A) (A) (A) (A) (A) (A) (A)
                 (A) (A) (A) (A) (A) (A) (A) (A) (A) (A) (A) (A)
                 (A) (A) (A) (A) (A) (A) (A) (A) (A) (A) (A) (A)
                 (A) (A) (A) (A) (A) (A) (A) (A) (A) (A) (A) (A)
                 (A) (A) (A) (A) (A) (A) (A) (A) (A) (A) (A) (A)
                 (A) (A) (A) (A) (A) (A) (A) (A) (A) (A) (A) (A)
                 (A) (A) (A) (A) (A) (A) (A) (A) (A) (A) (A) (A)
                 (A) (A) (A) (A) (A) (A) (A) (A) (A) (A) (A) (A)
                 (A) (A) (A) (A) (A) (A) (A) (A) (A) (A) (A) (A)
                 (A) (A) (A) (A) (A) (A) (A) (A) (A) (A) (A) (A)
                 (A) (A) (A) (A) (A) (A) (A) (A) (A) (A) (A) (A)
                 (A) (A) (A) (A) (A) (A) (A) (A) (A) (A) (A) (A)
                 (A) (A) (A) (A) (A) (A) (A) (A) (A) (A) (A) (A)
                 (A)
 The electronic state is 1-A.
 Alpha  occ. eigenvalues --  -14.56815 -14.45476 -10.42065 -10.36808 -10.36713
 Alpha  occ. eigenvalues --  -10.35570 -10.34252 -10.33378 -10.33046 -10.31796
 Alpha  occ. eigenvalues --  -10.29808 -10.29295 -10.29034  -1.14857  -1.03096
 Alpha  occ. eigenvalues --   -0.94772  -0.91147  -0.89866  -0.88122  -0.84236
 Alpha  occ. eigenvalues --   -0.80959  -0.76604  -0.73898  -0.71732  -0.69243
 Alpha  occ. eigenvalues --   -0.67234  -0.65909  -0.64869  -0.63773  -0.59955
 Alpha  occ. eigenvalues --   -0.58705  -0.57249  -0.56854  -0.56523  -0.55926
 Alpha  occ. eigenvalues --   -0.55542  -0.53988  -0.52004  -0.51424  -0.50050
 Alpha  occ. eigenvalues --   -0.49400  -0.48882  -0.48231  -0.46561  -0.45726
 Alpha  occ. eigenvalues --   -0.44989  -0.41273  -0.36932  -0.30709
 Alpha virt. eigenvalues --   -0.21648  -0.13114  -0.07761  -0.05083  -0.04016
 Alpha virt. eigenvalues --   -0.03710  -0.03032  -0.00396   0.00066   0.00824
 Alpha virt. eigenvalues --    0.01149   0.01651   0.02404   0.02650   0.03405
 Alpha virt. eigenvalues --    0.03942   0.04333   0.05486   0.06250   0.06581
 Alpha virt. eigenvalues --    0.07525   0.08192   0.09503   0.10227   0.11553
 Alpha virt. eigenvalues --    0.12282   0.14265   0.14949   0.17123   0.17954
 Alpha virt. eigenvalues --    0.22387   0.22841   0.23827   0.28446   0.29077
 Alpha virt. eigenvalues --    0.33420   0.34347   0.35083   0.38846   0.39630
 Alpha virt. eigenvalues --    0.40497   0.41572   0.42469   0.42909   0.43614
 Alpha virt. eigenvalues --    0.43979   0.45106   0.46003   0.47060   0.47769
 Alpha virt. eigenvalues --    0.48213   0.48701   0.50006   0.51572   0.52346
 Alpha virt. eigenvalues --    0.53647   0.55865   0.57153   0.59443   0.60709
 Alpha virt. eigenvalues --    0.62365   0.65084   0.65640   0.67401   0.67450
 Alpha virt. eigenvalues --    0.68941   0.69170   0.71030   0.71106   0.71423
 Alpha virt. eigenvalues --    0.72497   0.73226   0.74000   0.74705   0.75553
 Alpha virt. eigenvalues --    0.76369   0.77534   0.79127   0.79701   0.80007
 Alpha virt. eigenvalues --    0.81381   0.82344   0.83091   0.83472   0.84506
 Alpha virt. eigenvalues --    0.86664   0.87405   0.89132   0.90115   0.91617
 Alpha virt. eigenvalues --    0.92217   0.94271   0.96010   1.00724   1.01341
 Alpha virt. eigenvalues --    1.07116   1.07853   1.11839   1.12838   1.14127
 Alpha virt. eigenvalues --    1.16294   1.17185   1.17938   1.19544   1.19728
 Alpha virt. eigenvalues --    1.20562   1.22631   1.25317   1.25674   1.28048
 Alpha virt. eigenvalues --    1.31079   1.34623   1.36215   1.37003   1.38702
 Alpha virt. eigenvalues --    1.44952   1.45876   1.54172   1.56129   1.58545
 Alpha virt. eigenvalues --    1.60603   1.62636   1.64887   1.66080   1.67142
 Alpha virt. eigenvalues --    1.71253   1.72286   1.73220   1.74237   1.77163
 Alpha virt. eigenvalues --    1.78455   1.79761   1.80427   1.82674   1.84639
 Alpha virt. eigenvalues --    1.85646   1.86044   1.87606   1.88506   1.88871
 Alpha virt. eigenvalues --    1.90535   1.92510   1.93389   1.94400   1.94660
 Alpha virt. eigenvalues --    1.95650   1.96336   1.98087   1.98914   1.99872
 Alpha virt. eigenvalues --    2.00820   2.01440   2.02817   2.04633   2.05328
 Alpha virt. eigenvalues --    2.06221   2.06871   2.07913   2.11869   2.14324
 Alpha virt. eigenvalues --    2.15632   2.17424   2.19696   2.20670   2.23385
 Alpha virt. eigenvalues --    2.28747   2.30335   2.31278   2.32832   2.34896
 Alpha virt. eigenvalues --    2.36512   2.36858   2.38187   2.39490   2.41346
 Alpha virt. eigenvalues --    2.43292   2.43836   2.45253   2.46988   2.47359
 Alpha virt. eigenvalues --    2.48652   2.50549   2.51387   2.51807   2.53221
 Alpha virt. eigenvalues --    2.54074   2.55508   2.56999   2.58576   2.60268
 Alpha virt. eigenvalues --    2.62636   2.63296   2.65249   2.67252   2.68834
 Alpha virt. eigenvalues --    2.70505   2.73493   2.74888   2.76883   2.78220
 Alpha virt. eigenvalues --    2.80463   2.81468   2.84458   2.86014   2.86949
 Alpha virt. eigenvalues --    2.90589   2.92789   2.95425   2.96802   3.09753
 Alpha virt. eigenvalues --    3.12632   3.16193   3.20239   3.24552   3.27638
 Alpha virt. eigenvalues --    3.30568   3.31299   3.31825   3.33067   3.34178
 Alpha virt. eigenvalues --    3.35997   3.36256   3.40352   3.41269   3.43428
 Alpha virt. eigenvalues --    3.45291   3.49131   3.50810   3.86599   3.97757
 Alpha virt. eigenvalues --    4.00615   4.02293   4.06049   4.14033   4.23219
 Alpha virt. eigenvalues --    4.31987   4.33906   4.40632   4.41250   4.46319
 Alpha virt. eigenvalues --    4.54436
          Condensed to atoms (all electrons):
               1          2          3          4          5          6
     1  C    4.816274   0.382109   0.552777  -0.044114  -0.015666  -0.003695
     2  H    0.382109   0.591948  -0.052353   0.005436  -0.007984   0.003134
     3  C    0.552777  -0.052353   4.891270   0.388154   0.415409  -0.034044
     4  H   -0.044114   0.005436   0.388154   0.587502  -0.045035   0.003254
     5  C   -0.015666  -0.007984   0.415409  -0.045035   4.820183   0.384569
     6  H   -0.003695   0.003134  -0.034044   0.003254   0.384569   0.576432
     7  C    0.002238   0.000454  -0.025462  -0.004033   0.543344  -0.055274
     8  H    0.000396   0.000013  -0.007737   0.003352  -0.034046   0.005088
     9  C    0.414745  -0.038731  -0.024853  -0.008127   0.002785   0.000115
    10  H   -0.037753   0.003426  -0.004925   0.003201   0.000186   0.000003
    11  C   -0.015903  -0.003998   0.002279   0.000379  -0.000186  -0.000001
    12  H   -0.006958   0.003387   0.000328   0.000010   0.000001   0.000001
    13  N    0.000001   0.000000  -0.000079   0.000000   0.001854   0.000180
    14  C   -0.000180  -0.000000   0.002535   0.000149  -0.019517  -0.006824
    15  H    0.000002   0.000001   0.000040   0.000003  -0.002628   0.003222
    16  N    0.002359   0.000016  -0.000090  -0.000003   0.000000  -0.000000
    17  C   -0.000108  -0.000002   0.000002   0.000000  -0.000000   0.000000
    18  H    0.000002   0.000000  -0.000000  -0.000000   0.000000  -0.000000
    19  H   -0.000006   0.000001   0.000000   0.000000   0.000000   0.000000
    20  H    0.000012   0.000000  -0.000001   0.000000  -0.000000   0.000000
    21  C    0.000484   0.000004  -0.000011  -0.000009  -0.000000  -0.000000
    22  H   -0.000055   0.000000  -0.000015  -0.000000  -0.000000   0.000000
    23  H    0.000678  -0.000006  -0.000014  -0.000011  -0.000000  -0.000000
    24  H   -0.000017   0.000000  -0.000000   0.000000   0.000000   0.000000
    25  C    0.000000   0.000000  -0.000006  -0.000005   0.001159   0.000004
    26  H   -0.000000  -0.000000  -0.000046  -0.000007   0.001202  -0.000001
    27  H   -0.000000  -0.000000  -0.000003  -0.000000  -0.000028  -0.000000
    28  H    0.000000   0.000000   0.000000   0.000000  -0.000031   0.000001
    29  C   -0.000000  -0.000000   0.000001  -0.000000  -0.000062  -0.000008
    30  H   -0.000000   0.000000  -0.000000   0.000000   0.000006  -0.000000
    31  H    0.000000   0.000000  -0.000000   0.000000   0.000002   0.000000
    32  H    0.000000   0.000000   0.000000  -0.000000  -0.000004   0.000001
               7          8          9         10         11         12
     1  C    0.002238   0.000396   0.414745  -0.037753  -0.015903  -0.006958
     2  H    0.000454   0.000013  -0.038731   0.003426  -0.003998   0.003387
     3  C   -0.025462  -0.007737  -0.024853  -0.004925   0.002279   0.000328
     4  H   -0.004033   0.003352  -0.008127   0.003201   0.000379   0.000010
     5  C    0.543344  -0.034046   0.002785   0.000186  -0.000186   0.000001
     6  H   -0.055274   0.005088   0.000115   0.000003  -0.000001   0.000001
     7  C    4.929050   0.387817  -0.000157  -0.000002   0.000002  -0.000000
     8  H    0.387817   0.571191  -0.000002   0.000001   0.000000   0.000000
     9  C   -0.000157  -0.000002   4.910640   0.385936   0.569829  -0.049939
    10  H   -0.000002   0.000001   0.385936   0.601530  -0.049195   0.005321
    11  C    0.000002   0.000000   0.569829  -0.049195   4.781461   0.383802
    12  H   -0.000000   0.000000  -0.049939   0.005321   0.383802   0.572616
    13  N   -0.037781  -0.004739  -0.000000   0.000000  -0.000000   0.000000
    14  C    0.426022  -0.044632   0.000001  -0.000000  -0.000000   0.000000
    15  H   -0.032394   0.002813  -0.000000  -0.000000   0.000000  -0.000000
    16  N   -0.000000  -0.000000  -0.038682  -0.009046   0.321703  -0.039793
    17  C    0.000000  -0.000000   0.003254   0.000194  -0.045903  -0.003364
    18  H   -0.000000  -0.000000  -0.000216  -0.000004   0.004580   0.000021
    19  H   -0.000000  -0.000000   0.000153   0.000002  -0.003613   0.003501
    20  H    0.000000   0.000000   0.000977   0.000014  -0.007702   0.000876
    21  C    0.000000   0.000000  -0.010610   0.000641  -0.050534   0.004047
    22  H    0.000000   0.000000   0.005946   0.000731  -0.007922   0.000324
    23  H    0.000000  -0.000000  -0.002547  -0.001126  -0.011563  -0.000275
    24  H   -0.000000   0.000000   0.000508  -0.000060   0.006222  -0.000161
    25  C   -0.007175  -0.001992   0.000000   0.000000  -0.000000   0.000000
    26  H    0.004458  -0.001652   0.000000  -0.000000  -0.000000  -0.000000
    27  H    0.000743   0.000326   0.000000   0.000000   0.000000   0.000000
    28  H    0.000298   0.000273  -0.000000  -0.000000   0.000000  -0.000000
    29  C    0.003691  -0.000115   0.000000   0.000000  -0.000000  -0.000000
    30  H   -0.000078  -0.000002  -0.000000  -0.000000   0.000000  -0.000000
    31  H   -0.000176   0.000006  -0.000000  -0.000000   0.000000   0.000000
    32  H    0.000257   0.000004   0.000000   0.000000   0.000000   0.000000
              13         14         15         16         17         18
     1  C    0.000001  -0.000180   0.000002   0.002359  -0.000108   0.000002
     2  H    0.000000  -0.000000   0.000001   0.000016  -0.000002   0.000000
     3  C   -0.000079   0.002535   0.000040  -0.000090   0.000002  -0.000000
     4  H    0.000000   0.000149   0.000003  -0.000003   0.000000  -0.000000
     5  C    0.001854  -0.019517  -0.002628   0.000000  -0.000000   0.000000
     6  H    0.000180  -0.006824   0.003222  -0.000000   0.000000  -0.000000
     7  C   -0.037781   0.426022  -0.032394  -0.000000   0.000000  -0.000000
     8  H   -0.004739  -0.044632   0.002813  -0.000000  -0.000000  -0.000000
     9  C   -0.000000   0.000001  -0.000000  -0.038682   0.003254  -0.000216
    10  H    0.000000  -0.000000  -0.000000  -0.009046   0.000194  -0.000004
    11  C   -0.000000  -0.000000   0.000000   0.321703  -0.045903   0.004580
    12  H    0.000000   0.000000  -0.000000  -0.039793  -0.003364   0.000021
    13  N    6.662843   0.425958  -0.041548   0.000000   0.000000  -0.000000
    14  C    0.425958   4.765812   0.383102   0.000000  -0.000000   0.000000
    15  H   -0.041548   0.383102   0.513658  -0.000000   0.000000  -0.000000
    16  N    0.000000   0.000000  -0.000000   6.821212   0.290453  -0.035018
    17  C    0.000000  -0.000000   0.000000   0.290453   4.830192   0.395802
    18  H   -0.000000   0.000000  -0.000000  -0.035018   0.395802   0.557965
    19  H    0.000000   0.000000  -0.000000  -0.034424   0.392973  -0.023662
    20  H   -0.000000   0.000000   0.000000  -0.049032   0.381830  -0.038170
    21  C   -0.000000  -0.000000   0.000000   0.299336  -0.056759  -0.002852
    22  H   -0.000000   0.000000   0.000000  -0.049453  -0.005792  -0.001643
    23  H    0.000000  -0.000000   0.000000  -0.030984   0.005810   0.000090
    24  H   -0.000000   0.000000  -0.000000  -0.034977  -0.004081   0.004676
    25  C    0.277272  -0.055645   0.003829  -0.000000  -0.000000  -0.000000
    26  H   -0.027608  -0.011777  -0.000080   0.000000   0.000000   0.000000
    27  H   -0.036258  -0.001330  -0.000127  -0.000000  -0.000000  -0.000000
    28  H   -0.032975   0.004220  -0.000143   0.000000   0.000000   0.000000
    29  C    0.270709  -0.042866  -0.005083   0.000000   0.000000   0.000000
    30  H   -0.037332  -0.002470   0.000490   0.000000   0.000000   0.000000
    31  H   -0.030844   0.002506   0.000112   0.000000   0.000000   0.000000
    32  H   -0.032548  -0.002636   0.003342  -0.000000  -0.000000   0.000000
              19         20         21         22         23         24
     1  C   -0.000006   0.000012   0.000484  -0.000055   0.000678  -0.000017
     2  H    0.000001   0.000000   0.000004   0.000000  -0.000006   0.000000
     3  C    0.000000  -0.000001  -0.000011  -0.000015  -0.000014  -0.000000
     4  H    0.000000   0.000000  -0.000009  -0.000000  -0.000011   0.000000
     5  C    0.000000  -0.000000  -0.000000  -0.000000  -0.000000   0.000000
     6  H    0.000000   0.000000  -0.000000   0.000000  -0.000000   0.000000
     7  C   -0.000000   0.000000   0.000000   0.000000   0.000000  -0.000000
     8  H   -0.000000   0.000000   0.000000   0.000000  -0.000000   0.000000
     9  C    0.000153   0.000977  -0.010610   0.005946  -0.002547   0.000508
    10  H    0.000002   0.000014   0.000641   0.000731  -0.001126  -0.000060
    11  C   -0.003613  -0.007702  -0.050534  -0.007922  -0.011563   0.006222
    12  H    0.003501   0.000876   0.004047   0.000324  -0.000275  -0.000161
    13  N    0.000000  -0.000000  -0.000000  -0.000000   0.000000  -0.000000
    14  C    0.000000   0.000000  -0.000000   0.000000  -0.000000   0.000000
    15  H   -0.000000   0.000000   0.000000   0.000000   0.000000  -0.000000
    16  N   -0.034424  -0.049032   0.299336  -0.049453  -0.030984  -0.034977
    17  C    0.392973   0.381830  -0.056759  -0.005792   0.005810  -0.004081
    18  H   -0.023662  -0.038170  -0.002852  -0.001643   0.000090   0.004676
    19  H    0.562282  -0.036195   0.005371  -0.000156  -0.000293   0.000058
    20  H   -0.036195   0.623633  -0.006603   0.012654  -0.000252  -0.001232
    21  C    0.005371  -0.006603   4.835657   0.381602   0.391832   0.391952
    22  H   -0.000156   0.012654   0.381602   0.618813  -0.041947  -0.035517
    23  H   -0.000293  -0.000252   0.391832  -0.041947   0.584409  -0.023826
    24  H    0.000058  -0.001232   0.391952  -0.035517  -0.023826   0.558393
    25  C   -0.000000   0.000000   0.000000   0.000000  -0.000000   0.000000
    26  H    0.000000  -0.000000  -0.000000  -0.000000   0.000000  -0.000000
    27  H   -0.000000   0.000000   0.000000   0.000000  -0.000000   0.000000
    28  H    0.000000  -0.000000  -0.000000  -0.000000   0.000000  -0.000000
    29  C    0.000000  -0.000000  -0.000000  -0.000000   0.000000   0.000000
    30  H    0.000000  -0.000000  -0.000000  -0.000000   0.000000   0.000000
    31  H    0.000000   0.000000   0.000000   0.000000  -0.000000   0.000000
    32  H   -0.000000   0.000000   0.000000   0.000000  -0.000000   0.000000
              25         26         27         28         29         30
     1  C    0.000000  -0.000000  -0.000000   0.000000  -0.000000  -0.000000
     2  H    0.000000  -0.000000  -0.000000   0.000000  -0.000000   0.000000
     3  C   -0.000006  -0.000046  -0.000003   0.000000   0.000001  -0.000000
     4  H   -0.000005  -0.000007  -0.000000   0.000000  -0.000000   0.000000
     5  C    0.001159   0.001202  -0.000028  -0.000031  -0.000062   0.000006
     6  H    0.000004  -0.000001  -0.000000   0.000001  -0.000008  -0.000000
     7  C   -0.007175   0.004458   0.000743   0.000298   0.003691  -0.000078
     8  H   -0.001992  -0.001652   0.000326   0.000273  -0.000115  -0.000002
     9  C    0.000000   0.000000   0.000000  -0.000000   0.000000  -0.000000
    10  H    0.000000  -0.000000   0.000000  -0.000000   0.000000  -0.000000
    11  C   -0.000000  -0.000000   0.000000   0.000000  -0.000000   0.000000
    12  H    0.000000  -0.000000   0.000000  -0.000000  -0.000000  -0.000000
    13  N    0.277272  -0.027608  -0.036258  -0.032975   0.270709  -0.037332
    14  C   -0.055645  -0.011777  -0.001330   0.004220  -0.042866  -0.002470
    15  H    0.003829  -0.000080  -0.000127  -0.000143  -0.005083   0.000490
    16  N   -0.000000   0.000000  -0.000000   0.000000   0.000000   0.000000
    17  C   -0.000000   0.000000  -0.000000   0.000000   0.000000   0.000000
    18  H   -0.000000   0.000000  -0.000000   0.000000   0.000000   0.000000
    19  H   -0.000000   0.000000  -0.000000   0.000000   0.000000   0.000000
    20  H    0.000000  -0.000000   0.000000  -0.000000  -0.000000  -0.000000
    21  C    0.000000  -0.000000   0.000000  -0.000000  -0.000000  -0.000000
    22  H    0.000000  -0.000000   0.000000  -0.000000  -0.000000  -0.000000
    23  H   -0.000000   0.000000  -0.000000   0.000000   0.000000   0.000000
    24  H    0.000000  -0.000000   0.000000  -0.000000   0.000000   0.000000
    25  C    4.835944   0.390138   0.396165   0.391863  -0.035845   0.000433
    26  H    0.390138   0.528423  -0.031702  -0.022101   0.003288   0.000032
    27  H    0.396165  -0.031702   0.515400  -0.027612  -0.000041  -0.000277
    28  H    0.391863  -0.022101  -0.027612   0.517534  -0.001703   0.001462
    29  C   -0.035845   0.003288  -0.000041  -0.001703   4.833773   0.393319
    30  H    0.000433   0.000032  -0.000277   0.001462   0.393319   0.517694
    31  H   -0.001505  -0.000022   0.001661  -0.000333   0.393521  -0.028590
    32  H    0.003132  -0.000195  -0.000083   0.000053   0.394851  -0.027947
              31         32
     1  C    0.000000   0.000000
     2  H    0.000000   0.000000
     3  C   -0.000000   0.000000
     4  H    0.000000  -0.000000
     5  C    0.000002  -0.000004
     6  H    0.000000   0.000001
     7  C   -0.000176   0.000257
     8  H    0.000006   0.000004
     9  C   -0.000000   0.000000
    10  H   -0.000000   0.000000
    11  C    0.000000   0.000000
    12  H    0.000000   0.000000
    13  N   -0.030844  -0.032548
    14  C    0.002506  -0.002636
    15  H    0.000112   0.003342
    16  N    0.000000  -0.000000
    17  C    0.000000  -0.000000
    18  H    0.000000   0.000000
    19  H    0.000000  -0.000000
    20  H    0.000000   0.000000
    21  C    0.000000   0.000000
    22  H    0.000000   0.000000
    23  H   -0.000000  -0.000000
    24  H    0.000000   0.000000
    25  C   -0.001505   0.003132
    26  H   -0.000022  -0.000195
    27  H    0.001661  -0.000083
    28  H   -0.000333   0.000053
    29  C    0.393521   0.394851
    30  H   -0.028590  -0.027947
    31  H    0.514663  -0.022522
    32  H   -0.022522   0.517075
 Mulliken charges:
               1
     1  C   -0.047622
     2  H    0.113146
     3  C   -0.103155
     4  H    0.109905
     5  C   -0.045514
     6  H    0.123842
     7  C   -0.135842
     8  H    0.123638
     9  C   -0.121022
    10  H    0.100924
    11  C    0.126265
    12  H    0.126254
    13  N   -0.357105
    14  C    0.177573
    15  H    0.171388
    16  N   -0.413579
    17  C   -0.184501
    18  H    0.138427
    19  H    0.134007
    20  H    0.119190
    21  C   -0.183547
    22  H    0.122430
    23  H    0.130024
    24  H    0.138061
    25  C   -0.197768
    26  H    0.167648
    27  H    0.183168
    28  H    0.169194
    29  C   -0.207429
    30  H    0.183260
    31  H    0.171519
    32  H    0.167219
 Sum of Mulliken charges =   1.00000
 Mulliken charges with hydrogens summed into heavy atoms:
               1
     1  C    0.065524
     3  C    0.006750
     5  C    0.078328
     7  C   -0.012204
     9  C   -0.020098
    11  C    0.252519
    13  N   -0.357105
    14  C    0.348961
    16  N   -0.413579
    17  C    0.207124
    21  C    0.206968
    25  C    0.322242
    29  C    0.314569
 Electronic spatial extent (au):  <R**2>=           6763.9294
 Charge=              1.0000 electrons
 Dipole moment (field-independent basis, Debye):
    X=              9.8418    Y=             -0.5864    Z=              1.1434  Tot=              9.9253
 Quadrupole moment (field-independent basis, Debye-Ang):
   XX=             38.5232   YY=            -63.2907   ZZ=            -82.3244
   XY=              0.5088   XZ=             -3.9000   YZ=             -0.6028
 Traceless Quadrupole moment (field-independent basis, Debye-Ang):
   XX=             74.2205   YY=            -27.5934   ZZ=            -46.6271
   XY=              0.5088   XZ=             -3.9000   YZ=             -0.6028
 Octapole moment (field-independent basis, Debye-Ang**2):
  XXX=            303.9869  YYY=             -1.0248  ZZZ=              3.9000  XYY=             18.1792
  XXY=             -3.7808  XXZ=             38.3926  XZZ=             14.4560  YZZ=              1.4080
  YYZ=             -0.0197  XYZ=             -3.3789
 Hexadecapole moment (field-independent basis, Debye-Ang**3):
 XXXX=          -4382.9211 YYYY=           -407.7166 ZZZZ=           -128.7401 XXXY=            -18.1327
 XXXZ=           -113.6160 YYYX=              8.8549 YYYZ=             -2.8359 ZZZX=             -9.3793
 ZZZY=              0.7903 XXYY=          -1205.1659 XXZZ=          -1430.8105 YYZZ=            -94.6717
 XXYZ=             -0.8375 YYXZ=              9.2321 ZZXY=              3.0858
 N-N= 7.023380876185D+02 E-N=-2.640679745062D+03  KE= 5.345660547282D+02
 No NMR shielding tensors so no spin-rotation constants.
 Leave Link  601 at Tue Jun  8 21:59:42 2021, MaxMem=    33554432 cpu:         0.2
 (Enter /opt/app/gaussian09/e01/g09/l701.exe)
 Compute integral first derivatives.
 ... and contract with generalized density number  0.
 Leave Link  701 at Tue Jun  8 21:59:42 2021, MaxMem=    33554432 cpu:         0.2
 (Enter /opt/app/gaussian09/e01/g09/l702.exe)
 L702 exits ... SP integral derivatives will be done elsewhere.
 Leave Link  702 at Tue Jun  8 21:59:42 2021, MaxMem=    33554432 cpu:         0.0
 (Enter /opt/app/gaussian09/e01/g09/l703.exe)
 Compute integral first derivatives, UseDBF=F ICtDFT=           0.
 Integral derivatives from FoFJK, PRISM(SPDF).
 Calling FoFJK, ICntrl=      2127 FMM=F ISym2X=0 I1Cent= 0 IOpClX= 0 NMat=1 NMatS=1 NMatT=0.
 FoFJK:  IHMeth= 1 ICntrl=    2127 DoSepK=F KAlg= 0 I1Cent=   0 FoldK=F
 IRaf=         0 NMat=   1 IRICut=       1 DoRegI=T DoRafI=F ISym2E= 0.
 FoFCou: FMM=F IPFlag=           0 FMFlag=      100000 FMFlg1=         800
         NFxFlg=           0 DoJE=F BraDBF=F KetDBF=F FulRan=T
         wScrn=  0.000000 ICntrl=    2127 IOpCl=  0 I1Cent=           0 NGrid=           0
         NMat0=    1 NMatS0=      1 NMatT0=    0 NMatD0=    1 NMtDS0=    0 NMtDT0=    0
 Symmetry not used in FoFCou.
 Leave Link  703 at Tue Jun  8 22:00:26 2021, MaxMem=    33554432 cpu:        42.9
 (Enter /opt/app/gaussian09/e01/g09/l716.exe)
 Dipole        = 3.87206212D+00-2.30702065D-01 4.49844594D-01
 ***** Axes restored to original set *****
 -------------------------------------------------------------------
 Center     Atomic                   Forces (Hartrees/Bohr)
 Number     Number              X              Y              Z
 -------------------------------------------------------------------
      1        6           0.048324298   -0.054170700   -0.010675870
      2        1          -0.011346753   -0.003864628    0.004651870
      3        6          -0.049781707    0.055830118    0.012679337
      4        1           0.010126332    0.005125001   -0.004273059
      5        6           0.046030175   -0.058684109   -0.011540148
      6        1          -0.011643286   -0.004752335    0.004765821
      7        6          -0.045722996    0.058934203    0.011125759
      8        1           0.004301218   -0.000550842   -0.003564515
      9        6          -0.050559352    0.054068585    0.014360709
     10        1           0.005077084    0.010075098   -0.002718649
     11        6           0.048542104   -0.034596855   -0.007260455
     12        1          -0.009546482   -0.007848011    0.007096335
     13        7          -0.000046261    0.011940725   -0.001595956
     14        6           0.049019737   -0.081049381   -0.010283892
     15        1          -0.010530587    0.001213874    0.003409244
     16        7          -0.038201952    0.047508641   -0.007567063
     17        6           0.010669390    0.008003910    0.008813526
     18        1           0.006178530   -0.014031781    0.000075140
     19        1          -0.010296238   -0.002183489    0.011887820
     20        1          -0.011924192   -0.001172023   -0.017056065
     21        6          -0.001993020   -0.005764088    0.018465275
     22        1          -0.005747042    0.004285002   -0.019151065
     23        1           0.013752592    0.002630491    0.000239202
     24        1           0.007792788   -0.013252541    0.000136859
     25        6          -0.009667353    0.008270865    0.006736404
     26        1           0.008374521   -0.003504026    0.005421780
     27        1          -0.000095223   -0.001443471   -0.017029273
     28        1           0.006161956    0.012822752    0.003530669
     29        6           0.008424021   -0.009236687   -0.002545749
     30        1           0.003918505    0.007924791    0.014610869
     31        1           0.004563718    0.008817559   -0.010677700
     32        1          -0.014154525   -0.001346645   -0.002067160
 -------------------------------------------------------------------
 Cartesian Forces:  Max     0.081049381 RMS     0.022799725
 Leave Link  716 at Tue Jun  8 22:00:26 2021, MaxMem=    33554432 cpu:         0.0
 (Enter /opt/app/gaussian09/e01/g09/l103.exe)

 GradGradGradGradGradGradGradGradGradGradGradGradGradGradGradGradGradGrad
 Berny optimization.
 FormGI is forming the generalized inverse of G from B-inverse, IUseBI=4.
 GSVD:  received Info=                   1 from GESDD.
 Internal  Forces:  Max     0.063361580 RMS     0.014291926
 Search for a local minimum.
 Step number   1 out of a maximum of  148
 All quantities printed in internal units (Hartrees-Bohrs-Radians)
 RMS Force = .14292D-01 SwitMx=.10000D-02 MixMth= 1
 Mixed Optimization -- RFO/linear search
 Second derivative matrix not updated -- first step.
 ITU=  0
     Eigenvalues ---    0.00237   0.00237   0.00237   0.00766   0.00766
     Eigenvalues ---    0.00766   0.00766   0.00766   0.01349   0.01459
     Eigenvalues ---    0.01459   0.01459   0.01459   0.01459   0.01668
     Eigenvalues ---    0.01724   0.02681   0.02681   0.02681   0.03099
     Eigenvalues ---    0.03454   0.07537   0.07537   0.07537   0.07537
     Eigenvalues ---    0.07537   0.07537   0.07537   0.07537   0.16000
     Eigenvalues ---    0.16000   0.16000   0.16000   0.16000   0.16000
     Eigenvalues ---    0.16000   0.16000   0.16000   0.16000   0.16000
     Eigenvalues ---    0.16000   0.16000   0.16000   0.16000   0.16000
     Eigenvalues ---    0.16000   0.16000   0.16000   0.16276   0.17820
     Eigenvalues ---    0.22000   0.22000   0.22000   0.22000   0.22000
[...]
 Alpha virt. eigenvalues --    2.56912   2.57446   2.57536   2.57631   2.59519
 Alpha virt. eigenvalues --    2.60323   2.64537   2.66686   2.67958   2.69911
 Alpha virt. eigenvalues --    2.72118   2.72186   2.73089   2.75333   2.75900
 Alpha virt. eigenvalues --    2.76357   2.76397   2.81003   2.85168   2.86504
 Alpha virt. eigenvalues --    2.95409   2.95814   2.98565   2.98582   3.06070
 Alpha virt. eigenvalues --    3.06145   3.10340   3.10484   3.24282   3.26364
 Alpha virt. eigenvalues --    3.29024   3.29155   3.29168   3.29579   3.29580
 Alpha virt. eigenvalues --    3.32149   3.32217   3.33454   3.38705   3.41979
 Alpha virt. eigenvalues --    3.46804   3.53108   3.55621   3.91095   3.93112
 Alpha virt. eigenvalues --    4.01293   4.02819   4.07524   4.13724   4.26204
 Alpha virt. eigenvalues --    4.34318   4.34684   4.35150   4.41538   4.51412
 Alpha virt. eigenvalues --    4.62000
          Condensed to atoms (all electrons):
               1          2          3          4          5          6
     1  C    4.778034   0.380292   0.494147  -0.049432  -0.004168  -0.007713
     2  H    0.380292   0.612218  -0.048847   0.005296  -0.007713   0.005016
     3  C    0.494147  -0.048847   4.890744   0.387882   0.494142  -0.048846
     4  H   -0.049432   0.005296   0.387882   0.606113  -0.049433   0.005296
     5  C   -0.004168  -0.007713   0.494142  -0.049433   4.778034   0.380292
     6  H   -0.007713   0.005016  -0.048846   0.005296   0.380292   0.612219
     7  C    0.003167   0.000420  -0.027597  -0.006916   0.492347  -0.055389
     8  H    0.000315   0.000009  -0.006551   0.003557  -0.040238   0.005033
     9  C    0.492342  -0.055387  -0.027597  -0.006916   0.003166   0.000420
    10  H   -0.040240   0.005033  -0.006551   0.003557   0.000315   0.000009
    11  C   -0.003645  -0.006477   0.002424   0.000354  -0.000278   0.000001
    12  H   -0.006471   0.005171   0.000295   0.000008   0.000005   0.000002
    13  N    0.000001  -0.000000  -0.000120   0.000001   0.001800   0.000176
    14  C   -0.000278   0.000001   0.002424   0.000354  -0.003645  -0.006477
    15  H    0.000005   0.000002   0.000295   0.000008  -0.006471   0.005171
    16  N    0.001800   0.000175  -0.000120   0.000001   0.000001  -0.000000
    17  C   -0.000062  -0.000007   0.000001   0.000000  -0.000000   0.000000
    18  H    0.000004   0.000000  -0.000000  -0.000000  -0.000000   0.000000
    19  H   -0.000009  -0.000001   0.000000   0.000000   0.000000   0.000000
    20  H    0.000004   0.000000  -0.000000  -0.000000  -0.000000   0.000000
    21  C    0.000232   0.000014   0.000001  -0.000002   0.000000  -0.000000
    22  H    0.000117  -0.000001  -0.000011  -0.000001  -0.000000  -0.000000
    23  H    0.000109  -0.000001  -0.000011  -0.000001  -0.000000  -0.000000
    24  H   -0.000012   0.000000  -0.000000   0.000000   0.000000   0.000000
    25  C    0.000000  -0.000000   0.000001  -0.000002   0.000232   0.000014
    26  H   -0.000000  -0.000000  -0.000011  -0.000001   0.000116  -0.000001
    27  H   -0.000000  -0.000000  -0.000011  -0.000001   0.000110  -0.000001
    28  H    0.000000   0.000000  -0.000000   0.000000  -0.000012   0.000000
    29  C   -0.000000   0.000000   0.000001   0.000000  -0.000062  -0.000007
    30  H   -0.000000   0.000000  -0.000000  -0.000000   0.000004   0.000000
    31  H   -0.000000   0.000000  -0.000000  -0.000000   0.000004   0.000000
    32  H    0.000000   0.000000   0.000000   0.000000  -0.000009  -0.000001
               7          8          9         10         11         12
     1  C    0.003167   0.000315   0.492342  -0.040240  -0.003645  -0.006471
     2  H    0.000420   0.000009  -0.055387   0.005033  -0.006477   0.005171
     3  C   -0.027597  -0.006551  -0.027597  -0.006551   0.002424   0.000295
     4  H   -0.006916   0.003557  -0.006916   0.003557   0.000354   0.000008
     5  C    0.492347  -0.040238   0.003166   0.000315  -0.000278   0.000005
     6  H   -0.055389   0.005033   0.000420   0.000009   0.000001   0.000002
     7  C    4.913844   0.383483  -0.000233   0.000002   0.000002   0.000000
     8  H    0.383483   0.589557   0.000002   0.000001  -0.000000  -0.000000
     9  C   -0.000233   0.000002   4.913841   0.383483   0.501600  -0.044785
    10  H    0.000002   0.000001   0.383483   0.589558  -0.046614   0.004612
    11  C    0.000002  -0.000000   0.501600  -0.046614   4.698431   0.382777
    12  H    0.000000  -0.000000  -0.044785   0.004612   0.382777   0.566385
    13  N   -0.040167  -0.008029  -0.000000   0.000000  -0.000000   0.000000
    14  C    0.501600  -0.046614   0.000002  -0.000000  -0.000000   0.000000
    15  H   -0.044786   0.004612   0.000000  -0.000000   0.000000  -0.000000
    16  N   -0.000000   0.000000  -0.040165  -0.008028   0.393593  -0.047583
    17  C    0.000000   0.000000   0.004370  -0.000015  -0.037587  -0.007144
    18  H    0.000000  -0.000000  -0.000142   0.000001   0.000409   0.000187
    19  H   -0.000000   0.000000   0.000361  -0.000000  -0.002637   0.005956
    20  H    0.000000  -0.000000  -0.000144   0.000001   0.000447   0.000191
    21  C    0.000000   0.000000  -0.003549   0.005765  -0.047972   0.004619
    22  H    0.000000   0.000000   0.003441   0.000284  -0.004672  -0.000091
    23  H    0.000000   0.000000   0.003372   0.000285  -0.004581  -0.000094
    24  H   -0.000000   0.000000   0.000127   0.000043   0.004363  -0.000166
    25  C   -0.003549   0.005766   0.000000   0.000000  -0.000000   0.000000
    26  H    0.003435   0.000284   0.000000   0.000000   0.000000   0.000000
    27  H    0.003379   0.000285   0.000000   0.000000   0.000000   0.000000
    28  H    0.000127   0.000043  -0.000000   0.000000   0.000000  -0.000000
    29  C    0.004371  -0.000015   0.000000   0.000000  -0.000000   0.000000
    30  H   -0.000144   0.000001   0.000000  -0.000000   0.000000   0.000000
    31  H   -0.000142   0.000001   0.000000  -0.000000   0.000000   0.000000
    32  H    0.000361  -0.000000  -0.000000   0.000000   0.000000   0.000000
              13         14         15         16         17         18
     1  C    0.000001  -0.000278   0.000005   0.001800  -0.000062   0.000004
     2  H   -0.000000   0.000001   0.000002   0.000175  -0.000007   0.000000
     3  C   -0.000120   0.002424   0.000295  -0.000120   0.000001  -0.000000
     4  H    0.000001   0.000354   0.000008   0.000001   0.000000  -0.000000
     5  C    0.001800  -0.003645  -0.006471   0.000001  -0.000000  -0.000000
     6  H    0.000176  -0.006477   0.005171  -0.000000   0.000000   0.000000
     7  C   -0.040167   0.501600  -0.044786  -0.000000   0.000000   0.000000
     8  H   -0.008029  -0.046614   0.004612   0.000000   0.000000  -0.000000
     9  C   -0.000000   0.000002   0.000000  -0.040165   0.004370  -0.000142
    10  H    0.000000  -0.000000  -0.000000  -0.008028  -0.000015   0.000001
    11  C   -0.000000  -0.000000   0.000000   0.393593  -0.037587   0.000409
    12  H    0.000000   0.000000  -0.000000  -0.047583  -0.007144   0.000187
    13  N    6.728307   0.393599  -0.047583   0.000000   0.000000  -0.000000
    14  C    0.393599   4.698420   0.382778  -0.000000  -0.000000   0.000000
    15  H   -0.047583   0.382778   0.566383   0.000000   0.000000   0.000000
    16  N    0.000000  -0.000000   0.000000   6.728299   0.294654  -0.039821
    17  C    0.000000  -0.000000   0.000000   0.294654   4.814284   0.389068
    18  H   -0.000000   0.000000   0.000000  -0.039821   0.389068   0.553586
    19  H    0.000000   0.000000   0.000000  -0.032359   0.388959  -0.025544
    20  H   -0.000000   0.000000   0.000000  -0.039739   0.389043  -0.037185
    21  C   -0.000000  -0.000000   0.000000   0.284968  -0.041623  -0.001610
    22  H   -0.000000   0.000000   0.000000  -0.036985   0.002120  -0.000346
    23  H   -0.000000   0.000000   0.000000  -0.037153   0.002060   0.001144
    24  H    0.000000   0.000000  -0.000000  -0.031675  -0.002580   0.000877
    25  C    0.284964  -0.047974   0.004619  -0.000000   0.000000  -0.000000
    26  H   -0.036997  -0.004665  -0.000091  -0.000000  -0.000000   0.000000
    27  H   -0.037142  -0.004589  -0.000094  -0.000000   0.000000  -0.000000
    28  H   -0.031675   0.004364  -0.000166   0.000000   0.000000   0.000000
    29  C    0.294649  -0.037588  -0.007144   0.000000  -0.000000   0.000000
    30  H   -0.039749   0.000442   0.000191  -0.000000   0.000000   0.000000
    31  H   -0.039810   0.000413   0.000187  -0.000000   0.000000   0.000000
    32  H   -0.032359  -0.002637   0.005956   0.000000   0.000000   0.000000
              19         20         21         22         23         24
     1  C   -0.000009   0.000004   0.000232   0.000117   0.000109  -0.000012
     2  H   -0.000001   0.000000   0.000014  -0.000001  -0.000001   0.000000
     3  C    0.000000  -0.000000   0.000001  -0.000011  -0.000011  -0.000000
     4  H    0.000000  -0.000000  -0.000002  -0.000001  -0.000001   0.000000
     5  C    0.000000  -0.000000   0.000000  -0.000000  -0.000000   0.000000
     6  H    0.000000   0.000000  -0.000000  -0.000000  -0.000000   0.000000
     7  C   -0.000000   0.000000   0.000000   0.000000   0.000000  -0.000000
     8  H    0.000000  -0.000000   0.000000   0.000000   0.000000   0.000000
     9  C    0.000361  -0.000144  -0.003549   0.003441   0.003372   0.000127
    10  H   -0.000000   0.000001   0.005765   0.000284   0.000285   0.000043
    11  C   -0.002637   0.000447  -0.047972  -0.004672  -0.004581   0.004363
    12  H    0.005956   0.000191   0.004619  -0.000091  -0.000094  -0.000166
    13  N    0.000000  -0.000000  -0.000000  -0.000000  -0.000000   0.000000
    14  C    0.000000   0.000000  -0.000000   0.000000   0.000000   0.000000
    15  H    0.000000   0.000000   0.000000   0.000000   0.000000  -0.000000
    16  N   -0.032359  -0.039739   0.284968  -0.036985  -0.037153  -0.031675
    17  C    0.388959   0.389043  -0.041623   0.002120   0.002060  -0.002580
    18  H   -0.025544  -0.037185  -0.001610  -0.000346   0.001144   0.000877
    19  H    0.540706  -0.025480   0.004018  -0.000196  -0.000196   0.000243
    20  H   -0.025480   0.553467  -0.001696   0.001100  -0.000354   0.001020
    21  C    0.004018  -0.001696   4.830251   0.386722   0.386838   0.392089
    22  H   -0.000196   0.001100   0.386722   0.552915  -0.036951  -0.025415
    23  H   -0.000196  -0.000354   0.386838  -0.036951   0.553044  -0.025605
    24  H    0.000243   0.001020   0.392089  -0.025415  -0.025605   0.533585
    25  C   -0.000000  -0.000000   0.000000  -0.000000  -0.000000  -0.000000
    26  H   -0.000000  -0.000000  -0.000000  -0.000000   0.000000  -0.000000
    27  H    0.000000   0.000000  -0.000000   0.000000  -0.000000   0.000000
    28  H   -0.000000   0.000000  -0.000000  -0.000000   0.000000  -0.000000
    29  C    0.000000   0.000000   0.000000  -0.000000   0.000000   0.000000
    30  H   -0.000000   0.000000  -0.000000  -0.000000   0.000000   0.000000
    31  H    0.000000   0.000000  -0.000000   0.000000  -0.000000   0.000000
    32  H    0.000000   0.000000  -0.000000  -0.000000  -0.000000  -0.000000
              25         26         27         28         29         30
     1  C    0.000000  -0.000000  -0.000000   0.000000  -0.000000  -0.000000
     2  H   -0.000000  -0.000000  -0.000000   0.000000   0.000000   0.000000
     3  C    0.000001  -0.000011  -0.000011  -0.000000   0.000001  -0.000000
     4  H   -0.000002  -0.000001  -0.000001   0.000000   0.000000  -0.000000
     5  C    0.000232   0.000116   0.000110  -0.000012  -0.000062   0.000004
     6  H    0.000014  -0.000001  -0.000001   0.000000  -0.000007   0.000000
     7  C   -0.003549   0.003435   0.003379   0.000127   0.004371  -0.000144
     8  H    0.005766   0.000284   0.000285   0.000043  -0.000015   0.000001
     9  C    0.000000   0.000000   0.000000  -0.000000   0.000000   0.000000
    10  H    0.000000   0.000000   0.000000   0.000000   0.000000  -0.000000
    11  C   -0.000000   0.000000   0.000000   0.000000  -0.000000   0.000000
    12  H    0.000000   0.000000   0.000000  -0.000000   0.000000   0.000000
    13  N    0.284964  -0.036997  -0.037142  -0.031675   0.294649  -0.039749
    14  C   -0.047974  -0.004665  -0.004589   0.004364  -0.037588   0.000442
    15  H    0.004619  -0.000091  -0.000094  -0.000166  -0.007144   0.000191
    16  N   -0.000000  -0.000000  -0.000000   0.000000   0.000000  -0.000000
    17  C    0.000000  -0.000000   0.000000   0.000000  -0.000000   0.000000
    18  H   -0.000000   0.000000  -0.000000   0.000000   0.000000   0.000000
    19  H   -0.000000  -0.000000   0.000000  -0.000000   0.000000  -0.000000
    20  H   -0.000000  -0.000000   0.000000   0.000000   0.000000   0.000000
    21  C    0.000000  -0.000000  -0.000000  -0.000000   0.000000  -0.000000
    22  H   -0.000000  -0.000000   0.000000  -0.000000  -0.000000  -0.000000
    23  H   -0.000000   0.000000  -0.000000   0.000000   0.000000   0.000000
    24  H   -0.000000  -0.000000   0.000000  -0.000000   0.000000   0.000000
    25  C    4.830255   0.386737   0.386825   0.392089  -0.041622  -0.001685
    26  H    0.386737   0.552911  -0.036949  -0.025432   0.002116   0.001103
    27  H    0.386825  -0.036949   0.553038  -0.025587   0.002064  -0.000353
    28  H    0.392089  -0.025432  -0.025587   0.533583  -0.002580   0.001007
    29  C   -0.041622   0.002116   0.002064  -0.002580   4.814286   0.389045
    30  H   -0.001685   0.001103  -0.000353   0.001007   0.389045   0.553476
    31  H   -0.001621  -0.000346   0.001141   0.000890   0.389066  -0.037184
    32  H    0.004018  -0.000196  -0.000196   0.000243   0.388960  -0.025488
              31         32
     1  C   -0.000000   0.000000
     2  H    0.000000   0.000000
     3  C   -0.000000   0.000000
     4  H   -0.000000   0.000000
     5  C    0.000004  -0.000009
     6  H    0.000000  -0.000001
     7  C   -0.000142   0.000361
     8  H    0.000001  -0.000000
     9  C    0.000000  -0.000000
    10  H   -0.000000   0.000000
    11  C    0.000000   0.000000
    12  H    0.000000   0.000000
    13  N   -0.039810  -0.032359
    14  C    0.000413  -0.002637
    15  H    0.000187   0.005956
    16  N   -0.000000   0.000000
    17  C    0.000000   0.000000
    18  H    0.000000   0.000000
    19  H    0.000000   0.000000
    20  H    0.000000   0.000000
    21  C   -0.000000  -0.000000
    22  H    0.000000  -0.000000
    23  H   -0.000000  -0.000000
    24  H    0.000000  -0.000000
    25  C   -0.001621   0.004018
    26  H   -0.000346  -0.000196
    27  H    0.001141  -0.000196
    28  H    0.000890   0.000243
    29  C    0.389066   0.388960
    30  H   -0.037184  -0.025488
    31  H    0.553569  -0.025534
    32  H   -0.025534   0.540701
 Mulliken charges:
               1
     1  C   -0.038539
     2  H    0.104784
     3  C   -0.106082
     4  H    0.100279
     5  C   -0.038540
     6  H    0.104783
     7  C   -0.127614
     8  H    0.108501
     9  C   -0.127610
    10  H    0.108500
    11  C    0.170060
    12  H    0.136125
    13  N   -0.389863
    14  C    0.170069
    15  H    0.136127
    16  N   -0.389863
    17  C   -0.195541
    18  H    0.159372
    19  H    0.146179
    20  H    0.159324
    21  C   -0.199066
    22  H    0.157969
    23  H    0.158093
    24  H    0.153106
    25  C   -0.199067
    26  H    0.157987
    27  H    0.158080
    28  H    0.153107
    29  C   -0.195541
    30  H    0.159334
    31  H    0.159367
    32  H    0.146181
 Sum of Mulliken charges =   1.00000
 Mulliken charges with hydrogens summed into heavy atoms:
               1
     1  C    0.066245
     3  C   -0.005803
     5  C    0.066243
     7  C   -0.019113
     9  C   -0.019110
    11  C    0.306185
    13  N   -0.389863
    14  C    0.306196
    16  N   -0.389863
    17  C    0.269334
    21  C    0.270102
    25  C    0.270107
    29  C    0.269340
 Electronic spatial extent (au):  <R**2>=           6808.0710
 Charge=              1.0000 electrons
 Dipole moment (field-independent basis, Debye):
    X=              0.0004    Y=             -0.6610    Z=              0.0000  Tot=              0.6610
 Quadrupole moment (field-independent basis, Debye-Ang):
   XX=             50.9345   YY=            -64.2085   ZZ=            -81.4912
   XY=              0.0000   XZ=              0.0201   YZ=             -0.0002
 Traceless Quadrupole moment (field-independent basis, Debye-Ang):
   XX=             82.5229   YY=            -32.6201   ZZ=            -49.9028
   XY=              0.0000   XZ=              0.0201   YZ=             -0.0002
 Octapole moment (field-independent basis, Debye-Ang**2):
  XXX=              0.0109  YYY=             -1.9534  ZZZ=             -0.0028  XYY=              0.0002
  XXY=            -11.2776  XXZ=              0.0100  XZZ=              0.0008  YZZ=              1.7335
  YYZ=              0.0010  XYZ=             -0.0901
 Hexadecapole moment (field-independent basis, Debye-Ang**3):
 XXXX=          -3975.4649 YYYY=           -420.9001 ZZZZ=           -106.4373 XXXY=              0.0005
 XXXZ=              0.1211 YYYX=             -0.0016 YYYZ=             -0.0031 ZZZX=              0.1996
 ZZZY=             -0.0030 XXYY=          -1207.3316 XXZZ=          -1406.4545 YYZZ=            -93.2264
 XXYZ=              0.0118 YYXZ=             -0.0042 ZZXY=              0.0003
 N-N= 7.037742549756D+02 E-N=-2.643699579610D+03  KE= 5.345105953310D+02
 No NMR shielding tensors so no spin-rotation constants.
 Leave Link  601 at Tue Jun  8 23:16:41 2021, MaxMem=    33554432 cpu:         0.2
 (Enter /opt/app/gaussian09/e01/g09/l9999.exe)
 1\1\GINC-NB-0054\FOpt\RB3LYP\6-31G(d,p)\C11H19N2(1+)\ROOT\08-Jun-2021\
 0\\#p opt b3lyp/6-31g(d,p) geom=connectivity SCF=tight\\Title Card Req
 uired\\1,1\C,-4.7586126765,-1.0538623811,0.0833098712\H,-5.7674208596,
 -0.9806753344,0.4924129903\C,-4.1087022875,0.1403366266,-0.2210326243\
 H,-3.1014831633,0.1008126525,-0.630681692\C,-4.7044754296,1.3834292523
 ,-0.0187613329\H,-5.7147516709,1.3894798495,0.3932136938\C,-4.11869101
 83,2.6214266505,-0.2985564945\H,-3.114761669,2.6478453155,-0.709306119
 6\C,-4.2286974288,-2.3356542999,-0.0907330169\H,-3.2274734786,-2.44074
 29524,-0.4954420831\C,-4.9719059173,-3.4611044768,0.2496552429\H,-5.97
 15503666,-3.3200029036,0.6540148724\N,-4.372686105,5.041731366,-0.2740
 00291\C,-4.810814986,3.8031894791,-0.0551874579\H,-5.815634159,3.74077
 15193,0.3560872498\N,-4.5900093019,-4.7318640275,0.1347416637\C,-5.466
 724067,-5.833649718,0.5327389849\H,-4.9945707353,-6.4262857361,1.32258
 60035\H,-6.4121299735,-5.4385070931,0.9057047003\H,-5.6683345623,-6.48
 46415247,-0.3236992299\C,-3.2692722205,-5.0804845335,-0.3939862427\H,-
 3.1512014281,-4.7026041696,-1.4143618645\H,-2.4787783868,-4.6612910683
 ,0.2364993897\H,-3.1674165412,-6.1648850161,-0.4084888857\C,-3.0379417
 143,5.2861024514,-0.8255345602\H,-2.2676318168,4.8746373592,-0.1658226
 016\H,-2.9410858851,4.8308259761,-1.8162140722\H,-2.8827514341,6.36035
 64812,-0.9172267626\C,-5.2017606544,6.2104976962,0.0219970865\H,-4.705
 0473827,6.8495523191,0.7587595308\H,-5.3749896223,6.7917629243,-0.8891
 081612\H,-6.163383828,5.8901890264,0.424124303\\Version=ES64L-G09RevE.
 01\State=1-A\HF=-539.9106381\RMSD=9.615e-09\RMSF=6.370e-06\Dipole=-0.2
 407108,0.0096156,0.0979082\Quadrupole=-26.0432189,61.1481592,-35.10494
 03,1.7386125,-4.5704421,-3.9657386\PG=C01 [X(C11H19N2)]\\@


 TIME IS IN FACT THE HERO OF THE PLOT. THE TIME
 WITH WHICH WE HAVE TO DEAL IS OF THE ORDER OF TWO
 BILLION YEARS...GIVEN SO MUCH TIME, THE "IMPOSSIBLE"
 BECOMES POSSIBLE, THE POSSIBLE PROBABLE, THE PROBABLE
 VIRTUALLY CERTAIN.  ONE HAS ONLY TO WAIT, TIME
 ITSELF PERFORMS THE MIRACLES.
 "ORIGIN OF LIFE" LECTURES, GEORGE WALD, 1954
 Job cpu time:       0 days  1 hours 19 minutes 23.3 seconds.
 File lengths (MBytes):  RWF=     54 Int=      0 D2E=      0 Chk=      7 Scr=      1
 Normal termination of Gaussian 09 at Tue Jun  8 23:16:42 2021.
