 Entering Gaussian System, Link 0=/opt/app/gaussian09/e01/g09/g09.exec
 Input=3_pp_td.gjf
 Output=3_pp_td.log
 Initial command:
 /opt/app/gaussian09/e01/g09/l1.exe "./Gau-61552.inp" -scrdir="./"
 Entering Link 1 = /opt/app/gaussian09/e01/g09/l1.exe PID=     61560.
  
 Copyright (c) 1988,1990,1992,1993,1995,1998,2003,2009,2015,
            Gaussian, Inc.  All Rights Reserved.
  
 This is part of the Gaussian(R) 09 program.  It is based on
 the Gaussian(R) 03 system (copyright 2003, Gaussian, Inc.),
 the Gaussian(R) 98 system (copyright 1998, Gaussian, Inc.),
 the Gaussian(R) 94 system (copyright 1995, Gaussian, Inc.),
 the Gaussian 92(TM) system (copyright 1992, Gaussian, Inc.),
 the Gaussian 90(TM) system (copyright 1990, Gaussian, Inc.),
 the Gaussian 88(TM) system (copyright 1988, Gaussian, Inc.),
 the Gaussian 86(TM) system (copyright 1986, Carnegie Mellon
 University), and the Gaussian 82(TM) system (copyright 1983,
 Carnegie Mellon University). Gaussian is a federally registered
 trademark of Gaussian, Inc.
  
 This software contains proprietary and confidential information,
 including trade secrets, belonging to Gaussian, Inc.
  
 This software is provided under written license and may be
 used, copied, transmitted, or stored only in accord with that
 written license.
  
 The following legend is applicable only to US Government
 contracts under FAR:
  
                    RESTRICTED RIGHTS LEGEND
  
 Use, reproduction and disclosure by the US Government is
 subject to restrictions as set forth in subparagraphs (a)
 and (c) of the Commercial Computer Software - Restricted
 Rights clause in FAR 52.227-19.
  
 Gaussian, Inc.
 340 Quinnipiac St., Bldg. 40, Wallingford CT 06492
  
  
 ---------------------------------------------------------------
 Warning -- This program may not be used in any manner that
 competes with the business of Gaussian, Inc. or will provide
 assistance to any competitor of Gaussian, Inc.  The licensee
 of this program is prohibited from giving any competitor of
 Gaussian, Inc. access to this program.  By using this program,
 the user acknowledges that Gaussian, Inc. is engaged in the
 business of creating and licensing software in the field of
 computational chemistry and represents and warrants to the
 licensee that it is not a competitor of Gaussian, Inc. and that
 it will not use this program in any manner prohibited above.
 ---------------------------------------------------------------
  

 Cite this work as:
 Gaussian 09, Revision E.01,
 M. J. Frisch, G. W. Trucks, H. B. Schlegel, G. E. Scuseria, 
 M. A. Robb, J. R. Cheeseman, G. Scalmani, V. Barone, B. Mennucci, 
 G. A. Petersson, H. Nakatsuji, M. Caricato, X. Li, H. P. Hratchian, 
 A. F. Izmaylov, J. Bloino, G. Zheng, J. L. Sonnenberg, M. Hada, 
 M. Ehara, K. Toyota, R. Fukuda, J. Hasegawa, M. Ishida, T. Nakajima, 
 Y. Honda, O. Kitao, H. Nakai, T. Vreven, J. A. Montgomery, Jr., 
 J. E. Peralta, F. Ogliaro, M. Bearpark, J. J. Heyd, E. Brothers, 
 K. N. Kudin, V. N. Staroverov, T. Keith, R. Kobayashi, J. Normand, 
 K. Raghavachari, A. Rendell, J. C. Burant, S. S. Iyengar, J. Tomasi, 
 M. Cossi, N. Rega, J. M. Millam, M. Klene, J. E. Knox, J. B. Cross, 
 V. Bakken, C. Adamo, J. Jaramillo, R. Gomperts, R. E. Stratmann, 
 O. Yazyev, A. J. Austin, R. Cammi, C. Pomelli, J. W. Ochterski, 
 R. L. Martin, K. Morokuma, V. G. Zakrzewski, G. A. Voth, 
 P. Salvador, J. J. Dannenberg, S. Dapprich, A. D. Daniels, 
 O. Farkas, J. B. Foresman, J. V. Ortiz, J. Cioslowski, 
 and D. J. Fox, Gaussian, Inc., Wallingford CT, 2013.
 
 ******************************************
 Gaussian 09:  ES64L-G09RevE.01 30-Nov-2015
                 9-Jun-2021 
 ******************************************
 %chk=3_pp_td.chk
 --------------------------------------------------
 #p td(NStates=10) b3lyp/6-31g(d,p) nosymm pop=full
 --------------------------------------------------
 1/38=1/1;
 2/12=2,15=1,17=6,18=5,40=1/2;
 3/5=1,6=6,7=101,11=9,16=1,25=1,30=1,74=-5/1,2,8,3;
 4//1;
 5/5=2,38=5/2;
 8/6=1,10=2,108=10/1;
 9/41=10,42=1,70=2/14;
 6/7=3/1;
 99/5=1,9=1/99;
 Leave Link    1 at Wed Jun  9 11:24:09 2021, MaxMem=           0 cpu:         0.1
 (Enter /opt/app/gaussian09/e01/g09/l101.exe)
 --
 td
 --
 Symbolic Z-matrix:
 Charge =  1 Multiplicity = 1
 C                    -1.22     -0.335     0.00013 
 H                    -1.18639  -1.42554   0.0003 
 C                     0.00001   0.33783  -0.00011 
 H                     0.00002   1.42588  -0.0002 
 C                     1.22003  -0.335    -0.00023 
 H                     1.18642  -1.42554  -0.00012 
 C                     2.48134   0.26763  -0.00032 
 H                     2.54719   1.35066  -0.00016 
 C                    -2.48132   0.26764   0.00018 
 H                    -2.54714   1.35067  -0.00021 
 C                    -3.63623  -0.50762   0.00021 
 H                    -3.53438  -1.59036  -0.00076 
 N                     4.89227  -0.06467  -0.00098 
 C                     3.63624  -0.50763  -0.00021 
 H                     3.53439  -1.59038   0.00058 
 N                    -4.89229  -0.06467   0.00111 
 C                    -6.02894  -0.98606  -0.00248 
 H                    -6.64361  -0.8249   -0.89366 
 H                    -5.67082  -2.01601  -0.00264 
 H                    -6.64771  -0.82653   0.88611 
 C                    -5.18909   1.36968   0.00225 
 H                    -4.7662    1.84949   0.89042 
 H                    -4.77934   1.84877  -0.89257 
 H                    -6.26941   1.50882   0.01029 
 C                     5.18905   1.36969  -0.00213 
 H                     4.76741   1.84926  -0.89101 
 H                     4.77801   1.84894   0.892 
 H                     6.26938   1.50884  -0.00867 
 C                     6.02895  -0.98605   0.00254 
 H                     6.64735  -0.82692  -0.88638 
 H                     6.64396  -0.82443   0.89339 
 H                     5.67084  -2.01599   0.00335 
 
 NAtoms=     32 NQM=       32 NQMF=       0 NMMI=      0 NMMIF=      0
                NMic=       0 NMicF=      0.
                    Isotopes and Nuclear Properties:
 (Nuclear quadrupole moments (NQMom) in fm**2, nuclear magnetic moments (NMagM)
  in nuclear magnetons)

  Atom         1           2           3           4           5           6           7           8           9          10
 IAtWgt=          12           1          12           1          12           1          12           1          12           1
 AtmWgt=  12.0000000   1.0078250  12.0000000   1.0078250  12.0000000   1.0078250  12.0000000   1.0078250  12.0000000   1.0078250
 NucSpn=           0           1           0           1           0           1           0           1           0           1
 AtZEff=   0.0000000   0.0000000   0.0000000   0.0000000   0.0000000   0.0000000   0.0000000   0.0000000   0.0000000   0.0000000
 NQMom=    0.0000000   0.0000000   0.0000000   0.0000000   0.0000000   0.0000000   0.0000000   0.0000000   0.0000000   0.0000000
 NMagM=    0.0000000   2.7928460   0.0000000   2.7928460   0.0000000   2.7928460   0.0000000   2.7928460   0.0000000   2.7928460
 AtZNuc=   6.0000000   1.0000000   6.0000000   1.0000000   6.0000000   1.0000000   6.0000000   1.0000000   6.0000000   1.0000000

  Atom        11          12          13          14          15          16          17          18          19          20
 IAtWgt=          12           1          14          12           1          14          12           1           1           1
 AtmWgt=  12.0000000   1.0078250  14.0030740  12.0000000   1.0078250  14.0030740  12.0000000   1.0078250   1.0078250   1.0078250
 NucSpn=           0           1           2           0           1           2           0           1           1           1
 AtZEff=   0.0000000   0.0000000   0.0000000   0.0000000   0.0000000   0.0000000   0.0000000   0.0000000   0.0000000   0.0000000
 NQMom=    0.0000000   0.0000000   2.0440000   0.0000000   0.0000000   2.0440000   0.0000000   0.0000000   0.0000000   0.0000000
 NMagM=    0.0000000   2.7928460   0.4037610   0.0000000   2.7928460   0.4037610   0.0000000   2.7928460   2.7928460   2.7928460
 AtZNuc=   6.0000000   1.0000000   7.0000000   6.0000000   1.0000000   7.0000000   6.0000000   1.0000000   1.0000000   1.0000000

  Atom        21          22          23          24          25          26          27          28          29          30
 IAtWgt=          12           1           1           1          12           1           1           1          12           1
 AtmWgt=  12.0000000   1.0078250   1.0078250   1.0078250  12.0000000   1.0078250   1.0078250   1.0078250  12.0000000   1.0078250
 NucSpn=           0           1           1           1           0           1           1           1           0           1
 AtZEff=   0.0000000   0.0000000   0.0000000   0.0000000   0.0000000   0.0000000   0.0000000   0.0000000   0.0000000   0.0000000
 NQMom=    0.0000000   0.0000000   0.0000000   0.0000000   0.0000000   0.0000000   0.0000000   0.0000000   0.0000000   0.0000000
 NMagM=    0.0000000   2.7928460   2.7928460   2.7928460   0.0000000   2.7928460   2.7928460   2.7928460   0.0000000   2.7928460
 AtZNuc=   6.0000000   1.0000000   1.0000000   1.0000000   6.0000000   1.0000000   1.0000000   1.0000000   6.0000000   1.0000000

  Atom        31          32
 IAtWgt=           1           1
 AtmWgt=   1.0078250   1.0078250
 NucSpn=           1           1
 AtZEff=   0.0000000   0.0000000
 NQMom=    0.0000000   0.0000000
 NMagM=    2.7928460   2.7928460
 AtZNuc=   1.0000000   1.0000000
 Leave Link  101 at Wed Jun  9 11:24:10 2021, MaxMem=    33554432 cpu:         0.1
 (Enter /opt/app/gaussian09/e01/g09/l202.exe)
                          Input orientation:                          
 ---------------------------------------------------------------------
 Center     Atomic      Atomic             Coordinates (Angstroms)
 Number     Number       Type             X           Y           Z
 ---------------------------------------------------------------------
      1          6           0       -1.220000   -0.334998    0.000135
      2          1           0       -1.186391   -1.425542    0.000301
      3          6           0        0.000011    0.337826   -0.000114
      4          1           0        0.000015    1.425882   -0.000203
      5          6           0        1.220029   -0.334999   -0.000234
      6          1           0        1.186423   -1.425545   -0.000122
      7          6           0        2.481339    0.267631   -0.000318
      8          1           0        2.547185    1.350660   -0.000158
      9          6           0       -2.481316    0.267640    0.000185
     10          1           0       -2.547142    1.350668   -0.000210
     11          6           0       -3.636233   -0.507620    0.000214
     12          1           0       -3.534385   -1.590362   -0.000764
     13          7           0        4.892266   -0.064668   -0.000982
     14          6           0        3.636239   -0.507633   -0.000211
     15          1           0        3.534393   -1.590375    0.000578
     16          7           0       -4.892287   -0.064665    0.001109
     17          6           0       -6.028938   -0.986063   -0.002476
     18          1           0       -6.643609   -0.824904   -0.893662
     19          1           0       -5.670817   -2.016006   -0.002638
     20          1           0       -6.647712   -0.826527    0.886113
     21          6           0       -5.189094    1.369678    0.002247
     22          1           0       -4.766199    1.849488    0.890415
     23          1           0       -4.779342    1.848765   -0.892568
     24          1           0       -6.269411    1.508823    0.010295
     25          6           0        5.189050    1.369685   -0.002125
     26          1           0        4.767406    1.849263   -0.891014
     27          1           0        4.778010    1.848945    0.892000
     28          1           0        6.269377    1.508840   -0.008666
     29          6           0        6.028945   -0.986049    0.002541
     30          1           0        6.647349   -0.826916   -0.886384
     31          1           0        6.643963   -0.824425    0.893395
     32          1           0        5.670838   -2.015992    0.003351
 ---------------------------------------------------------------------
                    Distance matrix (angstroms):
                    1          2          3          4          5
     1  C    0.000000
     2  H    1.091062   0.000000
     3  C    1.393241   2.125328   0.000000
     4  H    2.142227   3.088395   1.088056   0.000000
     5  C    2.440029   2.641996   1.393248   2.142227   0.000000
     6  H    2.642000   2.372815   2.125336   3.088397   1.091063
     7  C    3.750076   4.039689   2.482321   2.738342   1.397879
     8  H    4.127121   4.652622   2.741155   2.548281   2.145412
     9  C    1.397888   2.131595   2.482319   2.738344   3.750084
    10  H    2.145409   3.091762   2.741138   2.548268   4.127112
    11  C    2.422391   2.616162   3.733236   4.118341   4.859329
    12  H    2.632929   2.353771   4.026147   4.646473   4.917355
    13  N    6.118241   6.229130   4.908785   5.114280   3.682174
    14  C    4.859307   4.909208   3.733224   4.118326   2.422370
    15  H    4.917339   4.723661   4.026142   4.646465   2.632916
    16  N    3.682224   3.947866   4.908826   5.114328   6.118291
    17  C    4.852811   4.862449   6.172594   6.493517   7.278146
    18  H    5.518552   5.562478   6.803533   7.071213   7.929377
    19  H    4.757685   4.523132   6.139936   6.633622   7.092922
    20  H    5.521469   5.565025   6.806859   7.074686   7.932752
    21  C    4.319680   4.882099   5.290703   5.189414   6.631952
    22  H    4.259121   4.932865   5.078870   4.867180   6.434296
    23  H    4.270206   4.942428   5.091328   4.880307   6.446513
    24  H    5.375531   5.869215   6.377851   6.269983   7.713073
    25  C    6.631883   6.961290   5.290639   5.189339   4.319616
    26  H    6.435384   6.853210   5.079980   4.868348   4.260090
    27  H    6.445243   6.862323   5.090052   4.878959   4.269066
    28  H    7.713014   8.012438   6.377797   6.269916   5.375475
    29  C    7.278123   7.228709   6.172577   6.493490   4.852788
    30  H    7.932407   7.906456   6.806556   7.074423   5.521145
    31  H    7.929651   7.904012   6.803770   7.071382   5.518802
    32  H    7.092912   6.882604   6.139931   6.633607   4.757673
                    6          7          8          9         10
     6  H    0.000000
     7  C    2.131584   0.000000
     8  H    3.091761   1.085029   0.000000
     9  C    4.039702   4.962655   5.143808   0.000000
    10  H    4.652620   5.143792   5.094328   1.085027   0.000000
    11  C    4.909236   6.166498   6.456614   1.390993   2.153916
    12  H    4.723684   6.296116   6.755376   2.135680   3.102307
    13  N    3.947817   2.433720   2.739080   7.381067   7.572845
    14  C    2.616135   1.390981   2.153901   6.166485   6.456585
    15  H    2.353748   2.135675   3.102300   6.296108   6.755354
    16  N    6.229182   7.381110   7.572905   2.433764   2.739137
    17  C    7.228734   8.602126   8.888767   3.762632   4.193235
    18  H    7.903708   9.233438   9.486946   4.395145   4.723602
    19  H    6.882616   8.465970   8.880879   3.922749   4.592586
    20  H    7.906827   9.237019   9.490614   4.397832   4.726565
    21  C    6.961358   7.749198   7.736303   2.923449   2.642021
    22  H    6.852198   7.471445   7.384277   2.918123   2.442590
    23  H    6.863521   7.484222   7.397466   2.928803   2.455019
    24  H    8.012495   8.838342   8.818021   3.986263   3.725641
    25  C    4.882042   2.923392   2.641933   7.749130   7.736216
    26  H    4.933709   2.919075   2.443687   7.472599   7.385441
    27  H    4.941423   2.927710   2.453735   7.482892   7.396092
    28  H    5.869165   3.986214   3.725560   8.838285   8.817942
    29  C    4.862425   3.762609   4.193193   8.602109   8.888731
    30  H    5.564667   4.397588   4.726370   9.236698   9.490303
    31  H    5.562774   4.395309   4.723666   9.233696   9.487148
    32  H    4.523120   3.922735   4.592555   8.465967   8.880856
                   11         12         13         14         15
    11  C    0.000000
    12  H    1.087523   0.000000
    13  N    8.539995   8.563655   0.000000
    14  C    7.272472   7.251907   1.331849   0.000000
    15  H    7.251912   7.068777   2.042451   1.087522   0.000000
    16  N    1.331871   2.042462   9.784553   8.540022   8.563686
    17  C    2.440072   2.566706  10.960004   9.677012   9.582406
    18  H    3.153410   3.324225  11.595312  10.323478  10.245845
    19  H    2.532739   2.178421  10.741809   9.428494   9.215045
    20  H    3.155238   3.326079  11.599072  10.327000  10.249044
    21  C    2.436315   3.391152  10.182887   9.022794   9.212011
    22  H    2.761384   3.760869   9.886584   8.772127   9.029081
    23  H    2.767003   3.764682   9.899301   8.784698   9.041215
    24  H    3.316590   4.133453  11.272047  10.108813  10.282008
    25  C    9.022743   9.211959   1.464736   2.436298   3.391144
    26  H    8.773273   9.030132   2.114445   2.761887   3.761165
    27  H    8.783403   9.040009   2.114801   2.766431   3.764325
    28  H   10.108773  10.281967   2.091033   3.316571   4.133444
    29  C    9.677012   9.582405   1.463214   2.440068   2.566711
    30  H   10.326667  10.248652   2.108382   3.155000   3.325668
    31  H   10.323786  10.246216   2.108455   3.153615   3.324640
    32  H    9.428508   9.215058   2.100918   2.532736   2.178430
                   16         17         18         19         20
    16  N    0.000000
    17  C    1.463203   0.000000
    18  H    2.108485   1.094534   0.000000
    19  H    2.100917   1.090428   1.777350   0.000000
    20  H    2.108360   1.094497   1.779781   1.777375   0.000000
    21  C    1.464731   2.500974   2.781089   3.419786   2.780665
    22  H    2.114414   3.229878   3.722899   4.069142   3.271263
    23  H    2.114860   3.223353   3.259448   4.064869   3.716410
    24  H    2.091033   2.506480   2.530503   3.575318   2.522702
    25  C   10.182864  11.462670  12.067430  11.375395  12.071505
    26  H    9.887804  11.197750  11.720172  11.166289  11.858454
    27  H    9.897991  11.208367  11.865557  11.176592  11.734791
    28  H   11.272034  12.548830  13.151988  12.449610  13.156966
    29  C   10.960030  12.057884  12.705226  11.745010  12.708414
    30  H   11.598787  12.708063  13.290960  12.406940  13.412695
    31  H   11.595623  12.705555  13.407205  12.404698  13.291677
    32  H   10.741847  11.745022  12.404392  11.341656  12.407287
                   21         22         23         24         25
    21  C    0.000000
    22  H    1.094487   0.000000
    23  H    1.094585   1.783032   0.000000
    24  H    1.089270   1.774911   1.775113   0.000000
    25  C   10.378145  10.006689  10.019543  11.459312   0.000000
    26  H   10.007987   9.698614   9.546748  11.078789   1.094487
    27  H   10.018210   9.544210   9.722534  11.087768   1.094579
    28  H   11.459321  11.077379  11.089230  12.538802   1.089272
    29  C   11.462716  11.196595  11.209659  12.548864   2.500986
    30  H   12.071291  11.857033  11.735781  13.156838   2.780936
    31  H   12.067704  11.719284  11.867076  13.152153   2.780800
    32  H   11.375451  11.165149  11.177892  12.449655   3.419789
                   26         27         28         29         30
    26  H    0.000000
    27  H    1.783046   0.000000
    28  H    1.774920   1.775118   0.000000
    29  C    3.229383   3.223843   2.506472   0.000000
    30  H    3.270495   3.717164   2.523689   1.094502   0.000000
    31  H    3.722121   3.260167   2.529457   1.094528   1.779784
    32  H    4.068940   4.065043   3.575309   1.090423   1.777387
                   31         32
    31  H    0.000000
    32  H    1.777352   0.000000
 Symmetry turned off by external request.
 Stoichiometry    C11H19N2(1+)
 Framework group  C1[X(C11H19N2)]
 Deg. of freedom    90
 Full point group                 C1      NOp   1
 Rotational constants (GHZ):      3.8558959      0.1603802      0.1545784
 Leave Link  202 at Wed Jun  9 11:24:10 2021, MaxMem=    33554432 cpu:         0.0
 (Enter /opt/app/gaussian09/e01/g09/l301.exe)
 Standard basis: 6-31G(d,p) (6D, 7F)
 Ernie: Thresh=  0.10000D-02 Tol=  0.10000D-05 Strict=F.
   290 basis functions,   497 primitive gaussians,   290 cartesian basis functions
    49 alpha electrons       49 beta electrons
       nuclear repulsion energy       703.7742006848 Hartrees.
 IExCor=  402 DFT=T Ex+Corr=B3LYP ExCW=0 ScaHFX=  0.200000
 ScaDFX=  0.800000  0.720000  1.000000  0.810000 ScalE2=  1.000000  1.000000
 IRadAn=      0 IRanWt=     -1 IRanGd=            0 ICorTp=0 IEmpDi=  4
 NAtoms=   32 NActive=   32 NUniq=   32 SFac= 1.00D+00 NAtFMM=   60 NAOKFM=F Big=F
 Integral buffers will be    131072 words long.
 Regular integral format.
 Two-electron integral symmetry is turned off.
 Leave Link  301 at Wed Jun  9 11:24:10 2021, MaxMem=    33554432 cpu:         0.1
 (Enter /opt/app/gaussian09/e01/g09/l302.exe)
 NPDir=0 NMtPBC=     1 NCelOv=     1 NCel=       1 NClECP=     1 NCelD=      1
         NCelK=      1 NCelE2=     1 NClLst=     1 CellRange=     0.0.
 One-electron integrals computed using PRISM.
 NBasis=   290 RedAO= T EigKep=  1.24D-03  NBF=   290
 NBsUse=   290 1.00D-06 EigRej= -1.00D+00 NBFU=   290
 Precomputing XC quadrature grid using
 IXCGrd= 4 IRadAn=           0 IRanWt=          -1 IRanGd=           0 AccXCQ= 0.00D+00.
 Generated NRdTot=       0 NPtTot=           0 NUsed=           0 NTot=          32
 NSgBfM=   281   281   281   281   281 MxSgAt=    32 MxSgA2=    32.
 Leave Link  302 at Wed Jun  9 11:24:11 2021, MaxMem=    33554432 cpu:         0.9
 (Enter /opt/app/gaussian09/e01/g09/l308.exe)
 Leave Link  308 at Wed Jun  9 11:24:13 2021, MaxMem=    33554432 cpu:         0.1
 (Enter /opt/app/gaussian09/e01/g09/l303.exe)
 DipDrv:  MaxL=1.
 Leave Link  303 at Wed Jun  9 11:24:13 2021, MaxMem=    33554432 cpu:         0.0
 (Enter /opt/app/gaussian09/e01/g09/l401.exe)
 ExpMin= 1.61D-01 ExpMax= 4.17D+03 ExpMxC= 6.27D+02 IAcc=1 IRadAn=         1 AccDes= 0.00D+00
 Harris functional with IExCor=  402 and IRadAn=       1 diagonalized for initial guess.
 HarFok:  IExCor=  402 AccDes= 0.00D+00 IRadAn=         1 IDoV= 1 UseB2=F ITyADJ=14
 ICtDFT=  3500011 ScaDFX=  1.000000  1.000000  1.000000  1.000000
 FoFCou: FMM=F IPFlag=           0 FMFlag=      100000 FMFlg1=           0
         NFxFlg=           0 DoJE=T BraDBF=F KetDBF=T FulRan=T
         wScrn=  0.000000 ICntrl=     500 IOpCl=  0 I1Cent=   200000004 NGrid=           0
         NMat0=    1 NMatS0=      1 NMatT0=    0 NMatD0=    1 NMtDS0=    0 NMtDT0=    0
 Symmetry not used in FoFCou.
 Harris En= -539.931806018425    
 JPrj=0 DoOrth=F DoCkMO=F.
 Leave Link  401 at Wed Jun  9 11:24:16 2021, MaxMem=    33554432 cpu:         3.1
 (Enter /opt/app/gaussian09/e01/g09/l502.exe)
 Closed shell SCF:
 Using DIIS extrapolation, IDIIS=  1040.
 Two-electron integral symmetry not used.
 IVT=      274394 IEndB=      274394 NGot=    33554432 MDV=    33381069
 LenX=    33381069 LenY=    33296528
 Requested convergence on RMS density matrix=1.00D-08 within 128 cycles.
 Requested convergence on MAX density matrix=1.00D-06.
 Requested convergence on             energy=1.00D-06.
 No special actions if energy rises.
 Fock matrices will be formed incrementally for  20 cycles.
 Integral accuracy reduced to 1.0D-05 until final iterations.

 Cycle   1  Pass 0  IDiag  1:
 FoFJK:  IHMeth= 1 ICntrl=       0 DoSepK=F KAlg= 0 I1Cent=   0 FoldK=F
 IRaf= 630000000 NMat=   1 IRICut=       1 DoRegI=T DoRafI=F ISym2E= 0.
 FoFCou: FMM=F IPFlag=           0 FMFlag=      100000 FMFlg1=           0
         NFxFlg=           0 DoJE=F BraDBF=F KetDBF=F FulRan=T
         wScrn=  0.000000 ICntrl=       0 IOpCl=  0 I1Cent=           0 NGrid=           0
         NMat0=    1 NMatS0=      1 NMatT0=    0 NMatD0=    1 NMtDS0=    0 NMtDT0=    0
 Symmetry not used in FoFCou.
 E= -539.589795013461    
 DIIS: error= 3.23D-02 at cycle   1 NSaved=   1.
 NSaved= 1 IEnMin= 1 EnMin= -539.589795013461     IErMin= 1 ErrMin= 3.23D-02
 ErrMax= 3.23D-02  0.00D+00 EMaxC= 1.00D-01 BMatC= 2.94D-01 BMatP= 2.94D-01
 IDIUse=3 WtCom= 6.77D-01 WtEn= 3.23D-01
 Coeff-Com:  0.100D+01
 Coeff-En:   0.100D+01
 Coeff:      0.100D+01
 Gap=     0.105 Goal=   None    Shift=    0.000
 GapD=    0.105 DampG=1.000 DampE=0.500 DampFc=0.5000 IDamp=-1.
 Damping current iteration by 5.00D-01
 RMSDP=4.35D-03 MaxDP=1.41D-01              OVMax= 3.74D-01

 Cycle   2  Pass 0  IDiag  1:
 RMSU=  2.14D-03    CP:  9.78D-01
 E= -539.705524056516     Delta-E=       -0.115729043055 Rises=F Damp=T
 DIIS: error= 1.24D-02 at cycle   2 NSaved=   2.
 NSaved= 2 IEnMin= 2 EnMin= -539.705524056516     IErMin= 2 ErrMin= 1.24D-02
 ErrMax= 1.24D-02  0.00D+00 EMaxC= 1.00D-01 BMatC= 3.87D-02 BMatP= 2.94D-01
 IDIUse=3 WtCom= 8.76D-01 WtEn= 1.24D-01
 Coeff-Com:  0.131D+00 0.869D+00
 Coeff-En:   0.238D+00 0.762D+00
 Coeff:      0.144D+00 0.856D+00
 Gap=     0.109 Goal=   None    Shift=    0.000
 RMSDP=1.67D-03 MaxDP=7.28D-02 DE=-1.16D-01 OVMax= 3.60D-01

 Cycle   3  Pass 0  IDiag  1:
 RMSU=  1.46D-03    CP:  9.68D-01  6.36D-01
 E= -539.843344979266     Delta-E=       -0.137820922750 Rises=F Damp=F
 DIIS: error= 1.66D-02 at cycle   3 NSaved=   3.
 NSaved= 3 IEnMin= 3 EnMin= -539.843344979266     IErMin= 2 ErrMin= 1.24D-02
 ErrMax= 1.66D-02  0.00D+00 EMaxC= 1.00D-01 BMatC= 6.01D-02 BMatP= 3.87D-02
 IDIUse=2 WtCom= 0.00D+00 WtEn= 1.00D+00
 Coeff-En:   0.000D+00 0.000D+00 0.100D+01
 Coeff:      0.000D+00 0.000D+00 0.100D+01
 Gap=     0.119 Goal=   None    Shift=    0.000
 RMSDP=2.93D-03 MaxDP=1.40D-01 DE=-1.38D-01 OVMax= 3.77D-01

 Cycle   4  Pass 0  IDiag  1:
 RMSU=  1.18D-03    CP:  9.75D-01  1.37D+00 -4.74D-01
 E= -539.539587256407     Delta-E=        0.303757722859 Rises=F Damp=F
 DIIS: error= 4.68D-02 at cycle   4 NSaved=   4.
 NSaved= 4 IEnMin= 3 EnMin= -539.843344979266     IErMin= 2 ErrMin= 1.24D-02
 ErrMax= 4.68D-02  0.00D+00 EMaxC= 1.00D-01 BMatC= 3.35D-01 BMatP= 3.87D-02
 IDIUse=2 WtCom= 0.00D+00 WtEn= 1.00D+00
 Coeff-En:   0.000D+00 0.000D+00 0.790D+00 0.210D+00
 Coeff:      0.000D+00 0.000D+00 0.790D+00 0.210D+00
 Gap=     0.111 Goal=   None    Shift=    0.000
 RMSDP=1.52D-03 MaxDP=6.92D-02 DE= 3.04D-01 OVMax= 2.05D-01

 Cycle   5  Pass 0  IDiag  1:
 RMSU=  2.74D-04    CP:  9.74D-01  9.50D-01  2.55D-01  5.54D-01
 E= -539.882058934375     Delta-E=       -0.342471677968 Rises=F Damp=F
 DIIS: error= 1.19D-02 at cycle   5 NSaved=   5.
 NSaved= 5 IEnMin= 5 EnMin= -539.882058934375     IErMin= 5 ErrMin= 1.19D-02
 ErrMax= 1.19D-02  0.00D+00 EMaxC= 1.00D-01 BMatC= 2.61D-02 BMatP= 3.87D-02
 IDIUse=3 WtCom= 8.81D-01 WtEn= 1.19D-01
 Coeff-Com: -0.558D-02 0.499D-01 0.310D+00-0.896D-01 0.735D+00
 Coeff-En:   0.000D+00 0.000D+00 0.346D+00 0.000D+00 0.654D+00
 Coeff:     -0.491D-02 0.439D-01 0.314D+00-0.789D-01 0.726D+00
 Gap=     0.105 Goal=   None    Shift=    0.000
 RMSDP=5.95D-04 MaxDP=3.10D-02 DE=-3.42D-01 OVMax= 8.13D-02

 Cycle   6  Pass 0  IDiag  1:
 RMSU=  9.78D-05    CP:  9.72D-01  8.18D-01  5.49D-01  3.21D-01  8.42D-01
 E= -539.910261129203     Delta-E=       -0.028202194828 Rises=F Damp=F
 DIIS: error= 1.35D-03 at cycle   6 NSaved=   6.
 NSaved= 6 IEnMin= 6 EnMin= -539.910261129203     IErMin= 6 ErrMin= 1.35D-03
 ErrMax= 1.35D-03  0.00D+00 EMaxC= 1.00D-01 BMatC= 3.52D-04 BMatP= 2.61D-02
 IDIUse=3 WtCom= 9.87D-01 WtEn= 1.35D-02
 Coeff-Com: -0.641D-02 0.199D-01 0.134D+00-0.697D-01 0.441D+00 0.482D+00
 Coeff-En:   0.000D+00 0.000D+00 0.000D+00 0.000D+00 0.000D+00 0.100D+01
 Coeff:     -0.633D-02 0.196D-01 0.132D+00-0.688D-01 0.435D+00 0.489D+00
 Gap=     0.106 Goal=   None    Shift=    0.000
 RMSDP=5.97D-05 MaxDP=3.32D-03 DE=-2.82D-02 OVMax= 7.31D-03

 Cycle   7  Pass 0  IDiag  1:
 RMSU=  2.15D-05    CP:  9.72D-01  8.23D-01  5.45D-01  3.32D-01  8.68D-01
                    CP:  4.65D-01
 E= -539.910581761816     Delta-E=       -0.000320632613 Rises=F Damp=F
 DIIS: error= 2.72D-04 at cycle   7 NSaved=   7.
 NSaved= 7 IEnMin= 7 EnMin= -539.910581761816     IErMin= 7 ErrMin= 2.72D-04
 ErrMax= 2.72D-04  0.00D+00 EMaxC= 1.00D-01 BMatC= 1.12D-05 BMatP= 3.52D-04
 IDIUse=3 WtCom= 9.97D-01 WtEn= 2.72D-03
 Coeff-Com: -0.698D-03 0.812D-03 0.271D-01-0.143D-01 0.874D-01 0.187D+00
 Coeff-Com:  0.713D+00
 Coeff-En:   0.000D+00 0.000D+00 0.000D+00 0.000D+00 0.000D+00 0.000D+00
 Coeff-En:   0.100D+01
 Coeff:     -0.696D-03 0.810D-03 0.270D-01-0.142D-01 0.872D-01 0.186D+00
 Coeff:      0.714D+00
 Gap=     0.106 Goal=   None    Shift=    0.000
 RMSDP=1.09D-05 MaxDP=6.39D-04 DE=-3.21D-04 OVMax= 1.01D-03

 Cycle   8  Pass 0  IDiag  1:
 RMSU=  8.13D-06    CP:  9.72D-01  8.22D-01  5.47D-01  3.31D-01  8.66D-01
                    CP:  5.19D-01  8.89D-01
 E= -539.910590199998     Delta-E=       -0.000008438182 Rises=F Damp=F
 DIIS: error= 7.96D-05 at cycle   8 NSaved=   8.
 NSaved= 8 IEnMin= 8 EnMin= -539.910590199998     IErMin= 8 ErrMin= 7.96D-05
 ErrMax= 7.96D-05  0.00D+00 EMaxC= 1.00D-01 BMatC= 1.53D-06 BMatP= 1.12D-05
 IDIUse=1 WtCom= 1.00D+00 WtEn= 0.00D+00
 Coeff-Com:  0.302D-03-0.139D-02 0.255D-02-0.131D-02 0.595D-02 0.703D-01
 Coeff-Com:  0.436D+00 0.488D+00
 Coeff:      0.302D-03-0.139D-02 0.255D-02-0.131D-02 0.595D-02 0.703D-01
 Coeff:      0.436D+00 0.488D+00
 Gap=     0.106 Goal=   None    Shift=    0.000
 RMSDP=4.82D-06 MaxDP=3.01D-04 DE=-8.44D-06 OVMax= 4.90D-04

 Initial convergence to 1.0D-05 achieved.  Increase integral accuracy.
 Cycle   9  Pass 1  IDiag  1:
 E= -539.910637969560     Delta-E=       -0.000047769562 Rises=F Damp=F
 DIIS: error= 2.25D-05 at cycle   1 NSaved=   1.
 NSaved= 1 IEnMin= 1 EnMin= -539.910637969560     IErMin= 1 ErrMin= 2.25D-05
 ErrMax= 2.25D-05  0.00D+00 EMaxC= 1.00D-01 BMatC= 1.52D-07 BMatP= 1.52D-07
 IDIUse=1 WtCom= 1.00D+00 WtEn= 0.00D+00
 Coeff-Com:  0.100D+01
 Coeff:      0.100D+01
 Gap=     0.106 Goal=   None    Shift=    0.000
 RMSDP=4.82D-06 MaxDP=3.01D-04 DE=-4.78D-05 OVMax= 1.57D-04

 Cycle  10  Pass 1  IDiag  1:
 RMSU=  7.34D-06    CP:  1.00D+00
 E= -539.910638043839     Delta-E=       -0.000000074279 Rises=F Damp=F
 DIIS: error= 1.87D-05 at cycle   2 NSaved=   2.
 NSaved= 2 IEnMin= 2 EnMin= -539.910638043839     IErMin= 2 ErrMin= 1.87D-05
 ErrMax= 1.87D-05  0.00D+00 EMaxC= 1.00D-01 BMatC= 9.92D-08 BMatP= 1.52D-07
 IDIUse=1 WtCom= 1.00D+00 WtEn= 0.00D+00
 Coeff-Com:  0.425D+00 0.575D+00
 Coeff:      0.425D+00 0.575D+00
 Gap=     0.106 Goal=   None    Shift=    0.000
 RMSDP=1.61D-06 MaxDP=7.02D-05 DE=-7.43D-08 OVMax= 1.54D-04

 Cycle  11  Pass 1  IDiag  1:
 RMSU=  1.57D-06    CP:  1.00D+00  9.54D-01
 E= -539.910638108136     Delta-E=       -0.000000064297 Rises=F Damp=F
 DIIS: error= 1.11D-05 at cycle   3 NSaved=   3.
 NSaved= 3 IEnMin= 3 EnMin= -539.910638108136     IErMin= 3 ErrMin= 1.11D-05
 ErrMax= 1.11D-05  0.00D+00 EMaxC= 1.00D-01 BMatC= 3.60D-08 BMatP= 9.92D-08
 IDIUse=1 WtCom= 1.00D+00 WtEn= 0.00D+00
 Coeff-Com:  0.234D-02 0.374D+00 0.624D+00
 Coeff:      0.234D-02 0.374D+00 0.624D+00
 Gap=     0.106 Goal=   None    Shift=    0.000
 RMSDP=6.67D-07 MaxDP=2.88D-05 DE=-6.43D-08 OVMax= 5.71D-05

 Cycle  12  Pass 1  IDiag  1:
 RMSU=  2.12D-07    CP:  1.00D+00  9.83D-01  6.23D-01
 E= -539.910638143821     Delta-E=       -0.000000035684 Rises=F Damp=F
 DIIS: error= 1.56D-06 at cycle   4 NSaved=   4.
 NSaved= 4 IEnMin= 4 EnMin= -539.910638143821     IErMin= 4 ErrMin= 1.56D-06
 ErrMax= 1.56D-06  0.00D+00 EMaxC= 1.00D-01 BMatC= 6.31D-10 BMatP= 3.60D-08
 IDIUse=1 WtCom= 1.00D+00 WtEn= 0.00D+00
 Coeff-Com: -0.721D-02 0.168D+00 0.293D+00 0.547D+00
 Coeff:     -0.721D-02 0.168D+00 0.293D+00 0.547D+00
 Gap=     0.106 Goal=   None    Shift=    0.000
 RMSDP=1.28D-07 MaxDP=5.59D-06 DE=-3.57D-08 OVMax= 1.50D-05

 Cycle  13  Pass 1  IDiag  1:
 RMSU=  9.05D-08    CP:  1.00D+00  9.83D-01  6.47D-01  6.13D-01
 E= -539.910638144294     Delta-E=       -0.000000000473 Rises=F Damp=F
 DIIS: error= 1.06D-06 at cycle   5 NSaved=   5.
 NSaved= 5 IEnMin= 5 EnMin= -539.910638144294     IErMin= 5 ErrMin= 1.06D-06
 ErrMax= 1.06D-06  0.00D+00 EMaxC= 1.00D-01 BMatC= 1.86D-10 BMatP= 6.31D-10
 IDIUse=1 WtCom= 1.00D+00 WtEn= 0.00D+00
 Coeff-Com: -0.549D-02 0.789D-01 0.140D+00 0.379D+00 0.408D+00
 Coeff:     -0.549D-02 0.789D-01 0.140D+00 0.379D+00 0.408D+00
 Gap=     0.106 Goal=   None    Shift=    0.000
 RMSDP=5.87D-08 MaxDP=3.40D-06 DE=-4.73D-10 OVMax= 7.96D-06

 Cycle  14  Pass 1  IDiag  1:
 RMSU=  3.00D-08    CP:  1.00D+00  9.84D-01  6.37D-01  6.98D-01  5.14D-01
 E= -539.910638144494     Delta-E=       -0.000000000200 Rises=F Damp=F
 DIIS: error= 2.38D-07 at cycle   6 NSaved=   6.
 NSaved= 6 IEnMin= 6 EnMin= -539.910638144494     IErMin= 6 ErrMin= 2.38D-07
 ErrMax= 2.38D-07  0.00D+00 EMaxC= 1.00D-01 BMatC= 1.04D-11 BMatP= 1.86D-10
 IDIUse=1 WtCom= 1.00D+00 WtEn= 0.00D+00
 Coeff-Com: -0.195D-02 0.222D-01 0.381D-01 0.145D+00 0.221D+00 0.575D+00
 Coeff:     -0.195D-02 0.222D-01 0.381D-01 0.145D+00 0.221D+00 0.575D+00
 Gap=     0.106 Goal=   None    Shift=    0.000
 RMSDP=1.16D-08 MaxDP=6.93D-07 DE=-2.00D-10 OVMax= 1.42D-06

 Cycle  15  Pass 1  IDiag  1:
 RMSU=  9.22D-09    CP:  1.00D+00  9.84D-01  6.37D-01  6.99D-01  5.73D-01
                    CP:  8.53D-01
 E= -539.910638144515     Delta-E=       -0.000000000021 Rises=F Damp=F
 DIIS: error= 3.75D-08 at cycle   7 NSaved=   7.
 NSaved= 7 IEnMin= 7 EnMin= -539.910638144515     IErMin= 7 ErrMin= 3.75D-08
 ErrMax= 3.75D-08  0.00D+00 EMaxC= 1.00D-01 BMatC= 7.07D-13 BMatP= 1.04D-11
 IDIUse=1 WtCom= 1.00D+00 WtEn= 0.00D+00
 Coeff-Com: -0.312D-04-0.229D-02-0.494D-02 0.521D-02 0.241D-01 0.233D+00
 Coeff-Com:  0.745D+00
 Coeff:     -0.312D-04-0.229D-02-0.494D-02 0.521D-02 0.241D-01 0.233D+00
 Coeff:      0.745D+00
 Gap=     0.106 Goal=   None    Shift=    0.000
 RMSDP=3.79D-09 MaxDP=1.16D-07 DE=-2.14D-11 OVMax= 4.19D-07

 SCF Done:  E(RB3LYP) =  -539.910638145     A.U. after   15 cycles
            NFock= 15  Conv=0.38D-08     -V/T= 2.0101
 KE= 5.345105912671D+02 PE=-2.643699467274D+03 EE= 8.655040371778D+02
 Leave Link  502 at Wed Jun  9 11:27:20 2021, MaxMem=    33554432 cpu:       182.4
 (Enter /opt/app/gaussian09/e01/g09/l801.exe)
 DoSCS=F DFT=T ScalE2(SS,OS)=  1.000000  1.000000
 ExpMin= 1.61D-01 ExpMax= 4.17D+03 ExpMxC= 6.27D+02 IAcc=3 IRadAn=         5 AccDes= 0.00D+00
 HarFok:  IExCor=  205 AccDes= 0.00D+00 IRadAn=         5 IDoV=-2 UseB2=F ITyADJ=14
 ICtDFT= 12500011 ScaDFX=  1.000000  1.000000  1.000000  1.000000
 Largest valence mixing into a core orbital is  5.30D-05
 Largest core mixing into a valence orbital is  1.29D-05
 Range of M.O.s used for correlation:    14   290
 NBasis=   290 NAE=    49 NBE=    49 NFC=    13 NFV=     0
 NROrb=    277 NOA=    36 NOB=    36 NVA=   241 NVB=   241
 Leave Link  801 at Wed Jun  9 11:27:21 2021, MaxMem=    33554432 cpu:         1.2
 (Enter /opt/app/gaussian09/e01/g09/l914.exe)
 RHF ground state
 MDV=    33554432 DFT=T DoStab=F Mixed=T DoRPA=T DoScal=F NonHer=T
 Would need an additional          2665400000 words for in-memory AO integral storage.
 Making orbital integer symmetry assigments:
    40 initial guesses have been made.
 Convergence on wavefunction:    0.001000000000000
 Davidson Disk Diagonalization:  ConvIn= 1.00D-03 SkipCon=T Conv= 1.00D-03.
 Max sub-space:   200 roots to seek:    40 dimension of matrix:        17352
 Iteration     1 Dimension    40 NMult     0 NNew     40
 CISAX will form    40 AO SS matrices at one time.
 NMat=    40 NSing=    40 JSym2X= 0.
 FoFJK:  IHMeth= 1 ICntrl=       0 DoSepK=F KAlg= 0 I1Cent=   0 FoldK=F
 IRaf=         0 NMat=  80 IRICut=     100 DoRegI=T DoRafI=T ISym2E= 0.
 FoFCou: FMM=F IPFlag=           0 FMFlag=      100000 FMFlg1=           0
         NFxFlg=           0 DoJE=F BraDBF=F KetDBF=F FulRan=T
         wScrn=  0.000000 ICntrl=       0 IOpCl=  0 I1Cent=           0 NGrid=           0
         NMat0=   80 NMatS0=     40 NMatT0=    0 NMatD0=   80 NMtDS0=    0 NMtDT0=    0
 Symmetry not used in FoFCou.
 New state      3 was old state      4
 New state      4 was old state      5
 New state      5 was old state     11
 New state      6 was old state      8
 New state      7 was old state      3
 New state      8 was old state     10
 New state      9 was old state     14
 New state     10 was old state      6
 Excitation Energies [eV] at current iteration:
 Root      1 :     3.803328375878368
 Root      2 :     4.842451034067918
 Root      3 :     6.066581858303238
 Root      4 :     6.500744357432527
 Root      5 :     6.509756127023415
 Root      6 :     6.547671301043661
 Root      7 :     6.577908029681522
 Root      8 :     6.823014202998035
 Root      9 :     6.935725884934248
 Root     10 :     6.992821528515077
 Root     11 :     7.017649472147724
 Root     12 :     7.298695812459906
 Root     13 :     7.356460136730960
 Root     14 :     7.514655579468376
 Root     15 :     7.525104678924464
 Root     16 :     7.561996528806483
 Root     17 :     7.788422951770263
 Root     18 :     7.816632223129264
 Root     19 :     7.834120266910849
 Root     20 :     7.900292972664684
 Root     21 :     8.102245672287397
 Root     22 :     8.229841245419792
 Root     23 :     8.274154539514965
 Root     24 :     8.329652908095531
 Root     25 :     8.364442259267337
 Root     26 :     8.385323813847817
 Root     27 :     8.425611248006755
 Root     28 :     8.478819378836706
 Root     29 :     8.515456555634785
 Root     30 :     8.610667274047888
 Root     31 :     8.612046025498408
 Root     32 :     8.645560928010674
 Root     33 :     8.724358872729455
 Root     34 :     8.788416994751799
 Root     35 :     8.808076211006792
 Root     36 :     8.809859987734091
 Root     37 :     8.848882558622261
 Root     38 :     8.976910817958494
 Root     39 :     9.547355727700667
 Root     40 :     9.684838915842064
 Iteration     2 Dimension    60 NMult    40 NNew     20
 CISAX will form    20 AO SS matrices at one time.
 NMat=    20 NSing=    20 JSym2X= 0.
 Root      1 not converged, maximum delta is    0.041184255301034
 Root      2 not converged, maximum delta is    0.059362078852167
 New state      3 was old state      7
 Root      3 not converged, maximum delta is    0.172382213290133
 New state      4 was old state      3
 Root      4 not converged, maximum delta is    0.162382231087104
 New state      5 was old state      4
 Root      5 not converged, maximum delta is    0.159675319605100
 New state      6 was old state      5
 Root      6 not converged, maximum delta is    0.041380411417852
 New state      7 was old state      6
 Root      7 not converged, maximum delta is    0.031676346434414
 New state      8 was old state     10
 Root      8 not converged, maximum delta is    0.158974619923583
 New state      9 was old state      8
 Root      9 not converged, maximum delta is    0.015476119311726
 New state     10 was old state      9
 Root     10 not converged, maximum delta is    0.052343653436179
 Excitation Energies [eV] at current iteration:
 Root      1 :     3.244716614085960   Change is   -0.558611761792408
 Root      2 :     4.524960628457777   Change is   -0.317490405610140
 Root      3 :     5.588793469342967   Change is   -0.989114560338555
 Root      4 :     5.813648837592901   Change is   -0.252933020710337
 Root      5 :     6.363824392390040   Change is   -0.136919965042488
 Root      6 :     6.468489782335975   Change is   -0.041266344687440
 Root      7 :     6.523570216500307   Change is   -0.024101084543355
 Root      8 :     6.680721909119828   Change is   -0.312099619395249
 Root      9 :     6.805586248457833   Change is   -0.017427954540202
 Root     10 :     6.882092866095118   Change is   -0.053633018839131
 Iteration     3 Dimension    80 NMult    60 NNew     20
 CISAX will form    20 AO SS matrices at one time.
 NMat=    20 NSing=    20 JSym2X= 0.
 Root      1 not converged, maximum delta is    0.009158362653975
 Root      2 not converged, maximum delta is    0.006124255835860
 Root      3 not converged, maximum delta is    0.014950627600795
 Root      4 not converged, maximum delta is    0.014224155141515
 Root      5 not converged, maximum delta is    0.002961794068817
 Root      6 not converged, maximum delta is    0.002245383084332
 Root      7 not converged, maximum delta is    0.002215344082910
 Root      8 not converged, maximum delta is    0.013702402800439
 Root      9 not converged, maximum delta is    0.002107614286539
 Root     10 not converged, maximum delta is    0.007041635298135
 Excitation Energies [eV] at current iteration:
 Root      1 :     3.220901184737686   Change is   -0.023815429348275
 Root      2 :     4.519482799276392   Change is   -0.005477829181386
 Root      3 :     5.539728785888585   Change is   -0.049064683454382
 Root      4 :     5.804852061871453   Change is   -0.008796775721448
 Root      5 :     6.361925559652179   Change is   -0.001898832737860
 Root      6 :     6.467517052070622   Change is   -0.000972730265354
 Root      7 :     6.522888661055404   Change is   -0.000681555444902
 Root      8 :     6.668556940861372   Change is   -0.012164968258456
 Root      9 :     6.804966245868631   Change is   -0.000620002589202
 Root     10 :     6.880347458304091   Change is   -0.001745407791027
 Iteration     4 Dimension   100 NMult    80 NNew     20
 CISAX will form    20 AO SS matrices at one time.
 NMat=    20 NSing=    20 JSym2X= 0.
 Root      1 not converged, maximum delta is    0.001737538117050
 Root      2 has converged.
 Root      3 not converged, maximum delta is    0.002500226894354
 Root      4 not converged, maximum delta is    0.001151466477615
 Root      5 has converged.
 Root      6 has converged.
 Root      7 has converged.
 Root      8 not converged, maximum delta is    0.001311153756908
 Root      9 has converged.
 Root     10 has converged.
 Excitation Energies [eV] at current iteration:
 Root      1 :     3.219527463091782   Change is   -0.001373721645903
 Root      2 :     4.518972611691274   Change is   -0.000510187585118
 Root      3 :     5.534900982635573   Change is   -0.004827803253011
 Root      4 :     5.804213045413110   Change is   -0.000639016458343
 Root      5 :     6.361655759310440   Change is   -0.000269800341740
 Root      6 :     6.467441316691182   Change is   -0.000075735379440
 Root      7 :     6.522836432845980   Change is   -0.000052228209424
 Root      8 :     6.667509753046482   Change is   -0.001047187814889
 Root      9 :     6.804900933337875   Change is   -0.000065312530756
 Root     10 :     6.880211590609163   Change is   -0.000135867694928
 Iteration     5 Dimension   108 NMult   100 NNew      8
 CISAX will form     8 AO SS matrices at one time.
 NMat=     8 NSing=     8 JSym2X= 0.
 Root      1 has converged.
 Root      2 has converged.
 Root      3 has converged.
 Root      4 has converged.
 Root      5 has converged.
 Root      6 has converged.
 Root      7 has converged.
 Root      8 has converged.
 Root      9 has converged.
 Root     10 has converged.
 Excitation Energies [eV] at current iteration:
 Root      1 :     3.219475160761269   Change is   -0.000052302330513
 Root      2 :     4.518965453616191   Change is   -0.000007158075083
 Root      3 :     5.534674379651560   Change is   -0.000226602984014
 Root      4 :     5.804181769619229   Change is   -0.000031275793881
 Root      5 :     6.361651849292377   Change is   -0.000003910018063
 Root      6 :     6.467441315423121   Change is   -0.000000001268060
 Root      7 :     6.522836432610744   Change is   -0.000000000235236
 Root      8 :     6.667403756317996   Change is   -0.000105996728486
 Root      9 :     6.804900931795506   Change is   -0.000000001542370
 Root     10 :     6.880211581713269   Change is   -0.000000008895894
 Convergence achieved on expansion vectors.
 ***********************************************************************
 Excited states from <AA,BB:AA,BB> singles matrix:
 ***********************************************************************
 
 1PDM for each excited state written to RWF  633
 Ground to excited state transition densities written to RWF  633
 Ground to excited state transition electric dipole moments (Au):
       state          X           Y           Z        Dip. S.      Osc.
         1        -4.8654      0.0000     -0.0004     23.6724      1.8672
         2         0.0001      0.3626     -0.0000      0.1315      0.0146
         3         0.0000     -0.0437     -0.0000      0.0019      0.0003
         4         0.2137      0.0000      0.0003      0.0456      0.0065
         5        -0.0738      0.0000     -0.0007      0.0054      0.0008
         6         0.0001      0.0005     -0.0000      0.0000      0.0000
         7        -0.0001     -0.0001      0.0025      0.0000      0.0000
         8        -0.0000      0.1556     -0.0000      0.0242      0.0040
         9        -0.0000     -0.0010     -0.0000      0.0000      0.0000
        10        -0.0010     -0.0002      0.0077      0.0001      0.0000
 Ground to excited state transition velocity dipole moments (Au):
       state          X           Y           Z        Dip. S.      Osc.
         1         0.5509     -0.0000      0.0001      0.3035      1.7100
         2        -0.0000     -0.0617      0.0000      0.0038      0.0153
         3        -0.0000      0.0011      0.0000      0.0000      0.0000
         4        -0.0473      0.0000     -0.0001      0.0022      0.0070
         5         0.0204     -0.0000      0.0001      0.0004      0.0012
         6        -0.0000     -0.0001      0.0000      0.0000      0.0000
         7         0.0001      0.0000      0.0029      0.0000      0.0000
         8         0.0000     -0.0436      0.0000      0.0019      0.0052
         9         0.0000      0.0002      0.0000      0.0000      0.0000
        10         0.0003      0.0000     -0.0060      0.0000      0.0001
 Ground to excited state transition magnetic dipole moments (Au):
       state          X           Y           Z
         1         0.0008      0.0000      0.2940
         2         0.0000      0.0007     -0.0000
         3         0.0001      0.0027      0.0000
         4        -0.0008     -0.0002     -0.5112
         5         0.0002      0.0000     -0.4350
         6         0.0000     -0.0183     -0.0000
         7         0.1504      0.0000     -0.0035
         8         0.0001      0.0020      0.0000
         9         0.0000     -0.2413     -0.0006
        10         0.1558      0.0000      0.0047
 Ground to excited state transition velocity quadrupole moments (Au):
       state          XX          YY          ZZ          XY          XZ          YZ
         1        -0.0001     -0.0000     -0.0000     -0.0232     -0.0001     -0.0001
         2        -1.3748     -0.0495     -0.0109      0.0000     -0.0005      0.0000
         3        -6.5689     -0.2498     -0.0592      0.0000     -0.0029      0.0000
         4        -0.0004     -0.0000     -0.0000     -0.3842      0.0001      0.0000
         5        -0.0000     -0.0000     -0.0000     -0.2889     -0.0001      0.0004
         6         0.0015     -0.0002     -0.0002     -0.0001      0.0286      0.0000
         7        -0.0009     -0.0001      0.0000     -0.0017     -0.0000      0.0407
         8        -0.5791     -0.1110     -0.0221      0.0000     -0.0017     -0.0000
         9        -0.0054     -0.0005      0.0009     -0.0002      0.2538      0.0000
        10         0.0013      0.0002      0.0000      0.0012     -0.0000     -0.0082
 <0|del|b> * <b|rxdel|0> + <0|del|b> * <b|delr+rdel|0>
 Rotatory Strengths (R) in cgs (10**-40 erg-esu-cm/Gauss)
       state          XX          YY          ZZ    R(velocity)    E-M Angle
         1         0.0409      1.1612      1.3967      0.8663       89.85
         2        -0.1465     -0.0000     -0.0281     -0.0582       90.00
         3         0.0108     -0.0000     -0.0003      0.0035       90.00
         4         0.1492      0.0801      0.0622      0.0971       90.00
         5        -0.1218     -0.0066     -0.0051     -0.0445       90.00
         6         0.0096      0.0000     -0.0021      0.0025       90.00
         7        -0.0221      0.0181      0.0147      0.0036       90.00
         8        -0.2311      0.0000     -0.0171     -0.0827       90.00
         9        -0.1549     -0.0000      0.0039     -0.0503       90.00
        10        -0.0495      0.0260      0.0608      0.0124       90.00
 1/2[<0|r|b>*<b|rxdel|0> + (<0|rxdel|b>*<b|r|0>)*]
 Rotatory Strengths (R) in cgs (10**-40 erg-esu-cm/Gauss)
       state          XX          YY          ZZ     R(length)
         1         2.6229     -0.0000      0.0878      0.9036
         2        -0.0000     -0.1703     -0.0000     -0.0568
         3        -0.0000      0.0837      0.0000      0.0279
         4         0.1168      0.0000      0.1215      0.0794
         5         0.0109     -0.0000     -0.2098     -0.0663
         6        -0.0000      0.0065     -0.0000      0.0022
         7         0.0134      0.0000      0.0061      0.0065
         8         0.0000     -0.2170      0.0000     -0.0723
         9         0.0000     -0.1682     -0.0000     -0.0561
        10         0.1112      0.0000     -0.0256      0.0285
  1/2[<0|del|b>*<b|r|0> + (<0|r|b>*<b|del|0>)*] (Au)
       state          X           Y           Z        Dip. S.   Osc.(frdel)
         1        -2.6803     -0.0000     -0.0000      2.6803      1.7868
         2        -0.0000     -0.0224     -0.0000      0.0224      0.0149
         3        -0.0000     -0.0000     -0.0000      0.0000      0.0000
         4        -0.0101      0.0000     -0.0000      0.0101      0.0067
         5        -0.0015     -0.0000     -0.0000      0.0015      0.0010
         6        -0.0000     -0.0000     -0.0000      0.0000      0.0000
         7        -0.0000     -0.0000      0.0000     -0.0000     -0.0000
         8        -0.0000     -0.0068     -0.0000      0.0068      0.0045
         9        -0.0000     -0.0000     -0.0000      0.0000      0.0000
        10        -0.0000     -0.0000     -0.0000      0.0000      0.0000

 Excitation energies and oscillator strengths:
 
 Excited state symmetry could not be determined.
 Excited State   1:      Singlet-?Sym    3.2195 eV  385.11 nm  f=1.8672  <S**2>=0.000
      49 -> 50         0.71887
      49 <- 50        -0.15320
 This state for optimization and/or second-order correction.
 Total Energy, E(TD-HF/TD-KS) =  -539.792324604    
 Copying the excited state density for this state as the 1-particle RhoCI density.
 
 Excited state symmetry could not be determined.
 Excited State   2:      Singlet-?Sym    4.5190 eV  274.36 nm  f=0.0146  <S**2>=0.000
      48 -> 50         0.59276
      49 -> 51        -0.38422
 
 Excited state symmetry could not be determined.
 Excited State   3:      Singlet-?Sym    5.5347 eV  224.01 nm  f=0.0003  <S**2>=0.000
      48 -> 50         0.38619
      49 -> 51         0.59154
 
 Excited state symmetry could not be determined.
 Excited State   4:      Singlet-?Sym    5.8042 eV  213.61 nm  f=0.0065  <S**2>=0.000
      47 -> 50         0.66737
      48 -> 51         0.19009
      49 -> 52         0.12581
 
 Excited state symmetry could not be determined.
 Excited State   5:      Singlet-?Sym    6.3617 eV  194.89 nm  f=0.0008  <S**2>=0.000
      48 -> 51        -0.43013
      49 -> 52         0.55487
 
 Excited state symmetry could not be determined.
 Excited State   6:      Singlet-?Sym    6.4674 eV  191.71 nm  f=0.0000  <S**2>=0.000
      44 -> 50         0.70272
 
 Excited state symmetry could not be determined.
 Excited State   7:      Singlet-?Sym    6.5228 eV  190.08 nm  f=0.0000  <S**2>=0.000
      49 -> 53         0.69005
      49 -> 55         0.12965
 
 Excited state symmetry could not be determined.
 Excited State   8:      Singlet-?Sym    6.6674 eV  185.96 nm  f=0.0040  <S**2>=0.000
      46 -> 50         0.69110
 
 Excited state symmetry could not be determined.
 Excited State   9:      Singlet-?Sym    6.8049 eV  182.20 nm  f=0.0000  <S**2>=0.000
      49 -> 54         0.68915
      49 -> 57         0.11521
 
 Excited state symmetry could not be determined.
 Excited State  10:      Singlet-?Sym    6.8802 eV  180.20 nm  f=0.0000  <S**2>=0.000
      43 -> 50         0.69592
 SavETr:  write IOETrn=   770 NScale= 10 NData=  16 NLR=1 NState=   10 LETran=     190.
 Leave Link  914 at Wed Jun  9 11:38:44 2021, MaxMem=    33554432 cpu:       681.5
 (Enter /opt/app/gaussian09/e01/g09/l601.exe)
 Copying SCF densities to generalized density rwf, IOpCl= 0 IROHF=0.

 **********************************************************************

            Population analysis using the SCF density.

 **********************************************************************

 Alpha  occ. eigenvalues --  -14.51536 -14.51536 -10.37004 -10.37004 -10.34110
 Alpha  occ. eigenvalues --  -10.34109 -10.33938 -10.33938 -10.33022 -10.33021
 Alpha  occ. eigenvalues --  -10.30553 -10.30553 -10.30072  -1.09506  -1.09503
 Alpha  occ. eigenvalues --   -0.94631  -0.91868  -0.87845  -0.85309  -0.85308
 Alpha  occ. eigenvalues --   -0.83852  -0.79645  -0.73753  -0.69296  -0.68286
 Alpha  occ. eigenvalues --   -0.68140  -0.64078  -0.63145  -0.61289  -0.60776
 Alpha  occ. eigenvalues --   -0.59451  -0.59447  -0.56218  -0.55029  -0.53055
 Alpha  occ. eigenvalues --   -0.52887  -0.52873  -0.52871  -0.51335  -0.51052
 Alpha  occ. eigenvalues --   -0.50728  -0.50648  -0.48925  -0.47597  -0.47436
 Alpha  occ. eigenvalues --   -0.45908  -0.42548  -0.37451  -0.30438
 Alpha virt. eigenvalues --   -0.19846  -0.11157  -0.04859  -0.03336  -0.02692
 Alpha virt. eigenvalues --   -0.02061  -0.01690  -0.00937   0.00848   0.01138
 Alpha virt. eigenvalues --    0.01873   0.02426   0.02731   0.03628   0.03893
 Alpha virt. eigenvalues --    0.03905   0.04068   0.04703   0.05322   0.07269
 Alpha virt. eigenvalues --    0.07517   0.07712   0.07774   0.08967   0.09788
 Alpha virt. eigenvalues --    0.11047   0.11490   0.16407   0.20732   0.21126
 Alpha virt. eigenvalues --    0.24029   0.25937   0.26584   0.28584   0.31887
 Alpha virt. eigenvalues --    0.35660   0.36537   0.36789   0.38593   0.38853
 Alpha virt. eigenvalues --    0.41197   0.41527   0.42037   0.42457   0.44998
 Alpha virt. eigenvalues --    0.45020   0.45553   0.46344   0.46978   0.48963
 Alpha virt. eigenvalues --    0.49285   0.49703   0.50388   0.50718   0.54217
 Alpha virt. eigenvalues --    0.54931   0.56057   0.58285   0.58763   0.58903
 Alpha virt. eigenvalues --    0.62398   0.63441   0.63532   0.67490   0.67756
 Alpha virt. eigenvalues --    0.69267   0.70254   0.70911   0.70995   0.71963
 Alpha virt. eigenvalues --    0.72133   0.72742   0.73115   0.73230   0.75652
 Alpha virt. eigenvalues --    0.75679   0.77466   0.77482   0.77897   0.77960
 Alpha virt. eigenvalues --    0.79252   0.79914   0.80769   0.81233   0.83921
 Alpha virt. eigenvalues --    0.84535   0.86702   0.87290   0.91883   0.92316
 Alpha virt. eigenvalues --    0.92652   0.95541   0.96427   1.02090   1.10022
 Alpha virt. eigenvalues --    1.12432   1.13667   1.13739   1.14021   1.15760
 Alpha virt. eigenvalues --    1.16509   1.18557   1.18810   1.19271   1.19479
 Alpha virt. eigenvalues --    1.22747   1.23053   1.25433   1.25656   1.28050
 Alpha virt. eigenvalues --    1.29945   1.33726   1.38015   1.39097   1.39907
 Alpha virt. eigenvalues --    1.41063   1.53181   1.53276   1.59001   1.59051
 Alpha virt. eigenvalues --    1.68494   1.68887   1.69003   1.70867   1.70881
 Alpha virt. eigenvalues --    1.71002   1.72295   1.75665   1.75842   1.76988
 Alpha virt. eigenvalues --    1.80526   1.80676   1.82220   1.82381   1.82570
 Alpha virt. eigenvalues --    1.83373   1.86479   1.89097   1.90589   1.90817
 Alpha virt. eigenvalues --    1.90955   1.91037   1.91040   1.92869   1.94907
 Alpha virt. eigenvalues --    1.95121   1.95730   1.96663   1.96807   1.99884
 Alpha virt. eigenvalues --    2.00580   2.01496   2.01604   2.02052   2.02295
 Alpha virt. eigenvalues --    2.07817   2.08838   2.09459   2.13318   2.15080
 Alpha virt. eigenvalues --    2.19643   2.21213   2.21705   2.22845   2.23427
 Alpha virt. eigenvalues --    2.25641   2.25930   2.30036   2.33322   2.33395
 Alpha virt. eigenvalues --    2.35700   2.36391   2.38502   2.39899   2.40349
 Alpha virt. eigenvalues --    2.43520   2.43638   2.43922   2.44845   2.48151
 Alpha virt. eigenvalues --    2.48618   2.50507   2.50523   2.51888   2.55088
 Alpha virt. eigenvalues --    2.56912   2.57446   2.57536   2.57631   2.59519
 Alpha virt. eigenvalues --    2.60323   2.64537   2.66686   2.67958   2.69911
 Alpha virt. eigenvalues --    2.72118   2.72186   2.73089   2.75333   2.75900
 Alpha virt. eigenvalues --    2.76357   2.76397   2.81003   2.85168   2.86504
 Alpha virt. eigenvalues --    2.95409   2.95814   2.98565   2.98582   3.06070
 Alpha virt. eigenvalues --    3.06145   3.10340   3.10484   3.24282   3.26364
 Alpha virt. eigenvalues --    3.29024   3.29155   3.29168   3.29579   3.29580
 Alpha virt. eigenvalues --    3.32149   3.32217   3.33454   3.38705   3.41979
 Alpha virt. eigenvalues --    3.46804   3.53108   3.55621   3.91095   3.93112
 Alpha virt. eigenvalues --    4.01293   4.02819   4.07523   4.13724   4.26204
 Alpha virt. eigenvalues --    4.34318   4.34684   4.35150   4.41538   4.51412
 Alpha virt. eigenvalues --    4.62000
     Molecular Orbital Coefficients:
                           1         2         3         4         5
                           O         O         O         O         O
     Eigenvalues --   -14.51536 -14.51536 -10.37004 -10.37004 -10.34110
   1 1   C  1S          0.00000   0.00000   0.00003  -0.00000  -0.00002
   2        2S          0.00001   0.00002  -0.00000  -0.00001  -0.00003
   3        2PX         0.00000   0.00001   0.00011   0.00001   0.00000
   4        2PY        -0.00000   0.00001   0.00009  -0.00000  -0.00000
   5        2PZ         0.00000  -0.00000  -0.00000  -0.00000   0.00000
   6        3S         -0.00011  -0.00043  -0.00258  -0.00012   0.00045
   7        3PX        -0.00009   0.00002  -0.00119  -0.00025   0.00006
   8        3PY        -0.00002  -0.00015  -0.00151   0.00013   0.00018
   9        3PZ        -0.00000  -0.00000   0.00000   0.00000  -0.00000
  10        4XX        -0.00000  -0.00001   0.00004  -0.00001   0.00000
  11        4YY         0.00000   0.00001   0.00004   0.00001   0.00000
  12        4ZZ         0.00000   0.00000  -0.00001  -0.00001  -0.00001
  13        4XY        -0.00000  -0.00002  -0.00005   0.00000   0.00001
  14        4XZ         0.00000   0.00000   0.00000   0.00000  -0.00000
  15        4YZ         0.00000  -0.00000   0.00000   0.00000  -0.00000
  16 2   H  1S          0.00000  -0.00001  -0.00011  -0.00000   0.00001
  17        2S          0.00000  -0.00003  -0.00035   0.00013  -0.00001
  18        3PX         0.00000   0.00000   0.00005   0.00001  -0.00000
  19        3PY         0.00000  -0.00000  -0.00000   0.00000  -0.00000
  20        3PZ         0.00000   0.00000  -0.00000  -0.00000   0.00000
  21 3   C  1S         -0.00000  -0.00000  -0.00003  -0.00004  -0.00002
  22        2S         -0.00002  -0.00002  -0.00013  -0.00017  -0.00005
  23        2PX         0.00001  -0.00001  -0.00000   0.00000  -0.00003
  24        2PY         0.00000   0.00000  -0.00000  -0.00001  -0.00001
  25        2PZ        -0.00000   0.00000  -0.00000   0.00000  -0.00000
  26        3S          0.00027   0.00027   0.00184   0.00236   0.00027
  27        3PX         0.00003  -0.00003  -0.00176   0.00137   0.00065
  28        3PY        -0.00009  -0.00009  -0.00052  -0.00067  -0.00007
  29        3PZ         0.00000  -0.00000   0.00000  -0.00000  -0.00000
  30        4XX         0.00001   0.00001   0.00005   0.00006   0.00000
  31        4YY        -0.00000  -0.00000  -0.00002  -0.00003  -0.00000
  32        4ZZ        -0.00000  -0.00000  -0.00004  -0.00005  -0.00003
  33        4XY        -0.00000   0.00000   0.00003  -0.00002  -0.00003
  34        4XZ        -0.00000  -0.00000  -0.00000  -0.00000  -0.00000
  35        4YZ         0.00000  -0.00000   0.00000  -0.00000   0.00000
  36 4   H  1S          0.00000   0.00000  -0.00004  -0.00005  -0.00002
  37        2S         -0.00000  -0.00000   0.00011   0.00015   0.00003
  38        3PX        -0.00000   0.00000   0.00006  -0.00004  -0.00003
  39        3PY         0.00000   0.00000  -0.00001  -0.00001  -0.00000
  40        3PZ        -0.00000   0.00000  -0.00000   0.00000  -0.00000
  41 5   C  1S          0.00000   0.00000  -0.00001   0.00003   0.00000
  42        2S          0.00002   0.00001  -0.00001  -0.00000   0.00003
  43        2PX        -0.00001  -0.00000   0.00002  -0.00011  -0.00005
  44        2PY         0.00001  -0.00000  -0.00002   0.00009  -0.00000
  45        2PZ         0.00000  -0.00000   0.00000   0.00000   0.00000
  46        3S         -0.00044  -0.00011   0.00052  -0.00253  -0.00075
  47        3PX        -0.00002   0.00009  -0.00005   0.00121   0.00024
  48        3PY        -0.00015  -0.00002   0.00050  -0.00144   0.00010
  49        3PZ         0.00000   0.00000  -0.00000  -0.00000   0.00000
  50        4XX        -0.00001  -0.00000  -0.00002   0.00004  -0.00004
  51        4YY         0.00001   0.00000  -0.00000   0.00004   0.00000
  52        4ZZ         0.00000   0.00000  -0.00001  -0.00001  -0.00001
  53        4XY         0.00002   0.00000  -0.00001   0.00004   0.00002
  54        4XZ         0.00000  -0.00000   0.00000   0.00000   0.00000
  55        4YZ         0.00000   0.00000   0.00000  -0.00000   0.00000
  56 6   H  1S         -0.00001   0.00000   0.00003  -0.00011  -0.00002
  57        2S         -0.00003   0.00000   0.00021  -0.00031   0.00032
  58        3PX        -0.00000  -0.00000   0.00000  -0.00005  -0.00000
  59        3PY        -0.00000   0.00000   0.00001  -0.00000   0.00002
  60        3PZ        -0.00000  -0.00000  -0.00000   0.00000  -0.00000
  61 7   C  1S         -0.00000   0.00000  -0.00052   0.00413  -0.00002
  62        2S          0.00005   0.00000   0.00004  -0.00025  -0.00018
  63        2PX        -0.00000   0.00000   0.00006  -0.00025   0.00005
  64        2PY         0.00002  -0.00000  -0.00004   0.00023   0.00001
  65        2PZ         0.00000   0.00000   0.00000  -0.00000   0.00000
  66        3S          0.00007  -0.00004  -0.00118   0.00544   0.00300
  67        3PX        -0.00036  -0.00003  -0.00047   0.00083   0.00147
  68        3PY        -0.00016   0.00003   0.00041  -0.00140  -0.00129
  69        3PZ        -0.00000  -0.00000  -0.00000   0.00000  -0.00000
  70        4XX        -0.00009   0.00000   0.00004  -0.00038   0.00006
  71        4YY         0.00001  -0.00000   0.00005  -0.00041  -0.00002
  72        4ZZ        -0.00001   0.00000   0.00002  -0.00020  -0.00005
  73        4XY         0.00000   0.00000   0.00000   0.00011  -0.00004
  74        4XZ         0.00000   0.00000  -0.00000   0.00000  -0.00000
  75        4YZ         0.00000   0.00000  -0.00000   0.00000   0.00000
  76 8   H  1S          0.00002  -0.00000  -0.00002   0.00002  -0.00002
  77        2S          0.00009  -0.00001   0.00001  -0.00015   0.00040
  78        3PX         0.00002   0.00000   0.00002  -0.00000  -0.00004
  79        3PY         0.00000  -0.00000   0.00001  -0.00008  -0.00002
  80        3PZ         0.00000   0.00000   0.00000  -0.00000   0.00000
  81 9   C  1S          0.00000  -0.00000   0.00413   0.00052   0.00000
  82        2S          0.00000   0.00005  -0.00025  -0.00002   0.00002
  83        2PX        -0.00000   0.00000   0.00026  -0.00000  -0.00001
  84        2PY        -0.00000   0.00002   0.00024   0.00002  -0.00001
  85        2PZ        -0.00000  -0.00000   0.00000   0.00000   0.00000
  86        3S         -0.00004   0.00007   0.00556   0.00020  -0.00037
  87        3PX         0.00004   0.00036  -0.00092   0.00025   0.00012
  88        3PY         0.00003  -0.00016  -0.00145   0.00005   0.00015
  89        3PZ        -0.00000   0.00000  -0.00000  -0.00000  -0.00000
  90        4XX        -0.00000  -0.00009  -0.00037  -0.00006  -0.00001
  91        4YY        -0.00000   0.00001  -0.00041  -0.00005   0.00000
  92        4ZZ         0.00000  -0.00001  -0.00020  -0.00003   0.00000
  93        4XY        -0.00000  -0.00000  -0.00011  -0.00003  -0.00001
  94        4XZ         0.00000   0.00000   0.00000   0.00000   0.00000
  95        4YZ        -0.00000  -0.00000   0.00000   0.00000  -0.00000
  96 10  H  1S         -0.00000   0.00002   0.00003  -0.00002  -0.00001
  97        2S         -0.00001   0.00009  -0.00015  -0.00003  -0.00001
  98        3PX        -0.00000  -0.00002   0.00001  -0.00001  -0.00000
  99        3PY        -0.00000   0.00000  -0.00008  -0.00001  -0.00000
 100        3PZ        -0.00000  -0.00000   0.00000   0.00000  -0.00000
 101 11  C  1S          0.00000   0.00005   0.98507   0.12351  -0.00000
 102        2S          0.00000   0.00024   0.04859   0.00605  -0.00002
 103        2PX        -0.00000  -0.00030  -0.00077  -0.00009  -0.00000
 104        2PY         0.00000   0.00009   0.00028   0.00004  -0.00000
 105        2PZ         0.00000   0.00000   0.00000   0.00000  -0.00000
 106        3S          0.00006  -0.00038  -0.00981  -0.00068   0.00022
 107        3PX        -0.00001   0.00010  -0.00364  -0.00025   0.00023
 108        3PY         0.00003   0.00014  -0.00016   0.00022   0.00013
 109        3PZ         0.00000  -0.00000   0.00000   0.00000   0.00000
 110        4XX         0.00000   0.00008  -0.00849  -0.00105   0.00000
 111        4YY         0.00000   0.00010  -0.00908  -0.00113  -0.00000
 112        4ZZ        -0.00000  -0.00001  -0.00960  -0.00122  -0.00001
 113        4XY        -0.00000  -0.00001  -0.00013  -0.00001   0.00001
 114        4XZ        -0.00000  -0.00000  -0.00000  -0.00000  -0.00000
 115        4YZ         0.00000   0.00000   0.00000   0.00000  -0.00000
 116 12  H  1S          0.00000  -0.00004  -0.00039  -0.00005  -0.00000
 117        2S          0.00000   0.00007   0.00204   0.00028   0.00004
 118        3PX         0.00000   0.00006   0.00018   0.00002  -0.00001
 119        3PY        -0.00000  -0.00006  -0.00015  -0.00002   0.00000
 120        3PZ        -0.00000  -0.00000  -0.00000  -0.00000  -0.00000
 121 13  N  1S          0.99263  -0.00620   0.00002  -0.00017  -0.00012
 122        2S          0.03481  -0.00021  -0.00001   0.00016  -0.00002
 123        2PX        -0.00009   0.00000  -0.00002   0.00016  -0.00006
 124        2PY        -0.00002   0.00000   0.00001  -0.00003  -0.00002
 125        2PZ         0.00000  -0.00000  -0.00000   0.00000  -0.00000
 126        3S          0.00397  -0.00007   0.00001  -0.00107   0.00174
 127        3PX         0.00007   0.00002  -0.00024   0.00238   0.00054
 128        3PY        -0.00007   0.00000  -0.00028   0.00164   0.00078
 129        3PZ        -0.00000  -0.00000   0.00000  -0.00000  -0.00000
 130        4XX        -0.00842   0.00005   0.00009  -0.00069  -0.00048
 131        4YY        -0.00848   0.00006   0.00003  -0.00021  -0.00036
 132        4ZZ        -0.00834   0.00005  -0.00001   0.00014  -0.00004
 133        4XY         0.00003  -0.00000   0.00004  -0.00030   0.00029
 134        4XZ        -0.00000   0.00000  -0.00000   0.00000  -0.00000
 135        4YZ         0.00000  -0.00000  -0.00000   0.00000   0.00000
 136 14  C  1S          0.00005  -0.00000  -0.12352   0.98506   0.00009
 137        2S          0.00024  -0.00000  -0.00613   0.04858  -0.00008
 138        2PX         0.00030  -0.00000  -0.00010   0.00077  -0.00010
 139        2PY         0.00009  -0.00000  -0.00003   0.00028   0.00015
 140        2PZ        -0.00000   0.00000   0.00000  -0.00000  -0.00000
 141        3S         -0.00038   0.00007   0.00177  -0.00968  -0.00120
 142        3PX        -0.00010   0.00002  -0.00066   0.00359   0.00282
 143        3PY         0.00014   0.00003   0.00025  -0.00010  -0.00219
 144        3PZ         0.00000  -0.00000   0.00000  -0.00000   0.00000
 145        4XX         0.00008   0.00000   0.00108  -0.00849   0.00007
 146        4YY         0.00010   0.00000   0.00114  -0.00907   0.00006
 147        4ZZ        -0.00001   0.00000   0.00119  -0.00960  -0.00006
 148        4XY         0.00001   0.00000  -0.00002   0.00012   0.00008
 149        4XZ        -0.00000  -0.00000   0.00000  -0.00000   0.00000
 150        4YZ        -0.00000  -0.00000   0.00000  -0.00000  -0.00000
 151 15  H  1S         -0.00004   0.00000   0.00005  -0.00038  -0.00018
 152        2S          0.00007   0.00000  -0.00023   0.00205  -0.00096
 153        3PX        -0.00006  -0.00000   0.00003  -0.00018  -0.00013
 154        3PY        -0.00006  -0.00000   0.00002  -0.00015  -0.00003
 155        3PZ         0.00000   0.00000  -0.00000   0.00000  -0.00000
 156 16  N  1S          0.00620   0.99263  -0.00017  -0.00002   0.00000
 157        2S          0.00022   0.03481   0.00016   0.00003  -0.00000
 158        2PX         0.00000   0.00009  -0.00016  -0.00002  -0.00000
 159        2PY         0.00000  -0.00002  -0.00003   0.00000   0.00000
 160        2PZ        -0.00000  -0.00000  -0.00000  -0.00000   0.00000
 161        3S         -0.00002   0.00397  -0.00104  -0.00026  -0.00001
 162        3PX        -0.00002  -0.00007  -0.00237  -0.00036   0.00002
 163        3PY         0.00000  -0.00007   0.00166   0.00013  -0.00007
 164        3PZ         0.00000   0.00000   0.00000   0.00000  -0.00000
 165        4XX        -0.00005  -0.00842  -0.00069  -0.00009   0.00001
 166        4YY        -0.00005  -0.00848  -0.00021  -0.00002   0.00001
 167        4ZZ        -0.00005  -0.00834   0.00014   0.00002  -0.00000
 168        4XY         0.00000  -0.00003   0.00030   0.00004   0.00000
 169        4XZ         0.00000  -0.00000   0.00000   0.00000   0.00000
 170        4YZ        -0.00000  -0.00000  -0.00000  -0.00000   0.00000
 171 17  C  1S          0.00000   0.00000  -0.00010  -0.00002  -0.02126
 172        2S          0.00000   0.00003  -0.00017  -0.00003  -0.00107
 173        2PX         0.00000   0.00024   0.00003  -0.00000  -0.00002
 174        2PY         0.00000   0.00018   0.00002   0.00000  -0.00001
 175        2PZ         0.00000   0.00000   0.00000   0.00000  -0.00000
 176        3S         -0.00001  -0.00029   0.00020   0.00002   0.00032
 177        3PX        -0.00000  -0.00019   0.00059   0.00009   0.00002
 178        3PY        -0.00000  -0.00008  -0.00099  -0.00013   0.00001
 179        3PZ        -0.00000  -0.00000  -0.00000  -0.00000  -0.00000
 180        4XX         0.00000   0.00016   0.00021   0.00002   0.00019
 181        4YY         0.00000   0.00011  -0.00006  -0.00001   0.00019
 182        4ZZ         0.00000   0.00002  -0.00004  -0.00001   0.00019
 183        4XY         0.00000   0.00012  -0.00001  -0.00000  -0.00000
 184        4XZ         0.00000   0.00000   0.00000   0.00000   0.00000
 185        4YZ        -0.00000   0.00000  -0.00000  -0.00000   0.00000
 186 18  H  1S          0.00000  -0.00002   0.00002   0.00000   0.00000
 187        2S         -0.00000  -0.00009   0.00020   0.00003  -0.00005
 188        3PX        -0.00000  -0.00005  -0.00004  -0.00001   0.00000
 189        3PY        -0.00000  -0.00003   0.00003   0.00000  -0.00000
 190        3PZ        -0.00000  -0.00002   0.00003   0.00001   0.00000
 191 19  H  1S         -0.00000  -0.00002  -0.00006  -0.00001   0.00000
 192        2S         -0.00000  -0.00000  -0.00094  -0.00011  -0.00004
 193        3PX        -0.00000  -0.00002  -0.00001  -0.00000  -0.00000
 194        3PY        -0.00000  -0.00005  -0.00004  -0.00000   0.00000
 195        3PZ         0.00000  -0.00000   0.00000   0.00000   0.00000
 196 20  H  1S          0.00000  -0.00002   0.00002   0.00000   0.00000
 197        2S         -0.00000  -0.00009   0.00020   0.00003  -0.00005
 198        3PX        -0.00000  -0.00005  -0.00004  -0.00001   0.00000
 199        3PY        -0.00000  -0.00003   0.00003   0.00000  -0.00000
 200        3PZ         0.00000   0.00002  -0.00003  -0.00001  -0.00000
 201 21  C  1S          0.00000   0.00000  -0.00011  -0.00002   0.00006
 202        2S          0.00000   0.00003  -0.00012  -0.00002   0.00001
 203        2PX         0.00000   0.00005  -0.00005  -0.00001   0.00000
 204        2PY        -0.00000  -0.00030   0.00011   0.00001  -0.00001
 205        2PZ         0.00000   0.00000   0.00000   0.00000  -0.00000
 206        3S          0.00000  -0.00020  -0.00113  -0.00007   0.00003
 207        3PX         0.00000   0.00012   0.00096   0.00016   0.00001
 208        3PY         0.00000   0.00016   0.00016  -0.00000  -0.00001
 209        3PZ        -0.00000  -0.00000  -0.00000  -0.00000   0.00000
 210        4XX         0.00000   0.00003   0.00001  -0.00000  -0.00000
 211        4YY         0.00000   0.00024   0.00003   0.00001   0.00000
 212        4ZZ         0.00000   0.00002  -0.00005  -0.00001   0.00000
 213        4XY        -0.00000  -0.00006  -0.00016  -0.00002  -0.00000
 214        4XZ         0.00000   0.00000   0.00000   0.00000   0.00000
 215        4YZ        -0.00000   0.00000   0.00000   0.00000  -0.00000
 216 22  H  1S         -0.00000  -0.00003  -0.00004  -0.00001  -0.00000
 217        2S         -0.00000  -0.00011   0.00007  -0.00000  -0.00000
 218        3PX        -0.00000  -0.00001  -0.00007  -0.00001  -0.00000
 219        3PY         0.00000   0.00006  -0.00001  -0.00000  -0.00000
 220        3PZ         0.00000   0.00003  -0.00001  -0.00000   0.00000
 221 23  H  1S         -0.00000  -0.00003  -0.00004  -0.00001  -0.00000
 222        2S         -0.00000  -0.00011   0.00007  -0.00000  -0.00000
 223        3PX        -0.00000  -0.00001  -0.00007  -0.00001  -0.00000
 224        3PY         0.00000   0.00006  -0.00001  -0.00000  -0.00000
 225        3PZ        -0.00000  -0.00003   0.00001   0.00000  -0.00000
 226 24  H  1S         -0.00000  -0.00002   0.00011   0.00001   0.00000
 227        2S          0.00000   0.00005   0.00071   0.00010  -0.00000
 228        3PX        -0.00000  -0.00003   0.00002   0.00000  -0.00000
 229        3PY         0.00000   0.00004   0.00002   0.00000   0.00000
 230        3PZ         0.00000   0.00000  -0.00000  -0.00000  -0.00000
 231 25  C  1S          0.00000   0.00000   0.00001  -0.00011  -0.00260
 232        2S          0.00003  -0.00000   0.00001  -0.00013  -0.00037
 233        2PX        -0.00005   0.00000  -0.00001   0.00005  -0.00003
 234        2PY        -0.00030   0.00000  -0.00002   0.00011   0.00015
 235        2PZ        -0.00000  -0.00000   0.00000  -0.00000  -0.00000
 236        3S         -0.00020   0.00000   0.00021  -0.00111   0.00010
 237        3PX        -0.00012  -0.00000   0.00009  -0.00096   0.00045
 238        3PY         0.00016  -0.00000  -0.00004   0.00015  -0.00023
 239        3PZ         0.00000   0.00000  -0.00000   0.00000   0.00001
 240        4XX         0.00003  -0.00000  -0.00000   0.00001  -0.00000
 241        4YY         0.00024  -0.00000  -0.00000   0.00003   0.00001
 242        4ZZ         0.00002   0.00000   0.00001  -0.00005  -0.00016
 243        4XY         0.00006   0.00000  -0.00002   0.00016  -0.00004
 244        4XZ         0.00000   0.00000  -0.00000   0.00000  -0.00000
 245        4YZ        -0.00000   0.00000   0.00000  -0.00000  -0.00000
 246 26  H  1S         -0.00003  -0.00000  -0.00000  -0.00004   0.00007
 247        2S         -0.00011  -0.00000  -0.00002   0.00007   0.00002
 248        3PX         0.00001   0.00000  -0.00001   0.00007  -0.00001
 249        3PY         0.00006  -0.00000   0.00000  -0.00001   0.00002
 250        3PZ        -0.00003  -0.00000  -0.00000   0.00001   0.00005
 251 27  H  1S         -0.00003  -0.00000  -0.00000  -0.00004   0.00007
 252        2S         -0.00011  -0.00000  -0.00002   0.00006   0.00001
 253        3PX         0.00001   0.00000  -0.00001   0.00007  -0.00001
 254        3PY         0.00006  -0.00000   0.00000  -0.00001   0.00003
 255        3PZ         0.00003   0.00000   0.00000  -0.00001  -0.00005
 256 28  H  1S         -0.00002   0.00000  -0.00001   0.00011  -0.00010
 257        2S          0.00005   0.00000  -0.00008   0.00071  -0.00002
 258        3PX         0.00003  -0.00000   0.00000  -0.00002  -0.00000
 259        3PY         0.00004  -0.00000  -0.00000   0.00002  -0.00005
 260        3PZ        -0.00000   0.00000  -0.00000   0.00000  -0.00000
 261 29  C  1S          0.00000  -0.00000   0.00001  -0.00011   0.99270
 262        2S          0.00003  -0.00000   0.00001  -0.00017   0.04951
 263        2PX        -0.00024   0.00000   0.00001  -0.00003  -0.00058
 264        2PY         0.00018  -0.00000  -0.00000   0.00002   0.00043
 265        2PZ        -0.00000   0.00000   0.00000  -0.00000  -0.00000
 266        3S         -0.00029  -0.00000  -0.00002   0.00020  -0.01469
 267        3PX         0.00019  -0.00000   0.00006  -0.00060   0.00032
 268        3PY        -0.00008  -0.00000   0.00012  -0.00099  -0.00040
 269        3PZ         0.00000  -0.00000  -0.00000   0.00000  -0.00000
 270        4XX         0.00016  -0.00000  -0.00003   0.00021  -0.00893
 271        4YY         0.00011  -0.00000   0.00000  -0.00006  -0.00895
 272        4ZZ         0.00002  -0.00000  -0.00000  -0.00004  -0.00893
 273        4XY        -0.00012   0.00000  -0.00000   0.00001  -0.00001
 274        4XZ         0.00000  -0.00000  -0.00000   0.00000  -0.00000
 275        4YZ        -0.00000   0.00000  -0.00000   0.00000  -0.00000
 276 30  H  1S         -0.00002   0.00000  -0.00000   0.00002  -0.00013
 277        2S         -0.00009   0.00000  -0.00002   0.00020   0.00261
 278        3PX         0.00005  -0.00000  -0.00000   0.00004   0.00005
 279        3PY        -0.00003   0.00000  -0.00000   0.00003   0.00005
 280        3PZ        -0.00002   0.00000  -0.00000   0.00003  -0.00012
 281 31  H  1S         -0.00002   0.00000  -0.00000   0.00002  -0.00013
 282        2S         -0.00009   0.00000  -0.00002   0.00020   0.00261
 283        3PX         0.00005  -0.00000  -0.00000   0.00004   0.00005
 284        3PY        -0.00003   0.00000  -0.00000   0.00003   0.00005
 285        3PZ         0.00002  -0.00000   0.00000  -0.00003   0.00012
 286 32  H  1S         -0.00002  -0.00000   0.00000  -0.00006  -0.00012
 287        2S         -0.00000  -0.00000   0.00013  -0.00094   0.00233
 288        3PX         0.00002  -0.00000  -0.00000   0.00001  -0.00004
 289        3PY        -0.00005   0.00000   0.00001  -0.00003  -0.00015
 290        3PZ         0.00000  -0.00000   0.00000  -0.00000   0.00000
                           6         7         8         9        10
                           O         O         O         O         O
     Eigenvalues --   -10.34109 -10.33938 -10.33938 -10.33022 -10.33021
   1 1   C  1S         -0.00000  -0.00000  -0.00011   0.65030   0.75007
   2        2S          0.00003   0.00002  -0.00019   0.03228   0.03735
   3        2PX         0.00005  -0.00004  -0.00001  -0.00003  -0.00004
   4        2PY        -0.00000   0.00002   0.00000   0.00008   0.00005
   5        2PZ        -0.00000  -0.00000  -0.00000  -0.00000  -0.00000
   6        3S         -0.00073  -0.00066   0.00242  -0.01120  -0.01271
   7        3PX        -0.00023   0.00060  -0.00147  -0.00004   0.00010
   8        3PY         0.00010  -0.00028   0.00066  -0.00197  -0.00195
   9        3PZ        -0.00000  -0.00000   0.00000   0.00000   0.00000
  10        4XX        -0.00004  -0.00001   0.00007  -0.00583  -0.00684
  11        4YY         0.00000   0.00000  -0.00002  -0.00592  -0.00690
  12        4ZZ        -0.00001  -0.00000  -0.00007  -0.00624  -0.00718
  13        4XY        -0.00002   0.00002  -0.00004   0.00001  -0.00001
  14        4XZ         0.00000  -0.00000  -0.00000  -0.00000  -0.00000
  15        4YZ        -0.00000  -0.00000   0.00000  -0.00000  -0.00000
  16 2   H  1S         -0.00002  -0.00003  -0.00002  -0.00030  -0.00033
  17        2S          0.00032   0.00000   0.00002   0.00081   0.00122
[...]
   XY=              0.0000   XZ=              0.0201   YZ=             -0.0002
 Octapole moment (field-independent basis, Debye-Ang**2):
  XXX=              0.0109  YYY=             -1.9534  ZZZ=             -0.0028  XYY=              0.0002
  XXY=            -11.2776  XXZ=              0.0100  XZZ=              0.0009  YZZ=              1.7335
  YYZ=              0.0009  XYZ=             -0.0901
 Hexadecapole moment (field-independent basis, Debye-Ang**3):
 XXXX=          -3975.4650 YYYY=           -420.9002 ZZZZ=           -106.4373 XXXY=              0.0004
 XXXZ=              0.1209 YYYX=             -0.0016 YYYZ=             -0.0031 ZZZX=              0.1995
 ZZZY=             -0.0030 XXYY=          -1207.3317 XXZZ=          -1406.4547 YYZZ=            -93.2264
 XXYZ=              0.0118 YYXZ=             -0.0042 ZZXY=              0.0003
 N-N= 7.037742006848D+02 E-N=-2.643699470926D+03  KE= 5.345105912671D+02
 Orbital energies and kinetic energies (alpha):
                                 1                 2
   1         O               -14.515364         21.957184
   2         O               -14.515362         21.957184
   3         O               -10.370041         15.881447
   4         O               -10.370040         15.881411
   5         O               -10.341097         15.883578
   6         O               -10.341094         15.883576
   7         O               -10.339383         15.883321
   8         O               -10.339379         15.883315
   9         O               -10.330217         15.881522
  10         O               -10.330212         15.881450
  11         O               -10.305528         15.879682
  12         O               -10.305527         15.879639
  13         O               -10.300716         15.880038
  14         O                -1.095056          1.878432
  15         O                -1.095033          1.878261
  16         O                -0.946309          1.538844
  17         O                -0.918678          1.572770
  18         O                -0.878451          1.595489
  19         O                -0.853093          1.436367
  20         O                -0.853080          1.435110
  21         O                -0.838520          1.598715
  22         O                -0.796455          1.608912
  23         O                -0.737532          1.642992
  24         O                -0.692955          1.360842
  25         O                -0.682857          1.239403
  26         O                -0.681401          1.260901
  27         O                -0.640783          1.309681
  28         O                -0.631454          1.186602
  29         O                -0.612888          1.460957
  30         O                -0.607758          1.298118
  31         O                -0.594511          1.053381
  32         O                -0.594473          1.053691
  33         O                -0.562179          1.390086
  34         O                -0.550288          1.312796
  35         O                -0.530546          1.273796
  36         O                -0.528867          1.230541
  37         O                -0.528731          1.025997
  38         O                -0.528713          1.028122
  39         O                -0.513348          1.212156
  40         O                -0.510519          1.229613
  41         O                -0.507281          1.562615
  42         O                -0.506478          1.273367
  43         O                -0.489251          1.279736
  44         O                -0.475970          1.173896
  45         O                -0.474360          1.034853
  46         O                -0.459081          1.164173
  47         O                -0.425480          1.265584
  48         O                -0.374508          1.354675
  49         O                -0.304376          1.420475
  50         V                -0.198465          1.519735
  51         V                -0.111571          1.592039
  52         V                -0.048590          1.550953
  53         V                -0.033358          0.976110
  54         V                -0.026919          1.010802
  55         V                -0.020614          0.931781
  56         V                -0.016902          1.359994
  57         V                -0.009369          0.962629
  58         V                 0.008482          1.454541
  59         V                 0.011382          1.501361
  60         V                 0.018727          1.098098
  61         V                 0.024256          1.379690
  62         V                 0.027308          1.240106
  63         V                 0.036281          1.083830
  64         V                 0.038925          0.888846
  65         V                 0.039047          0.888219
  66         V                 0.040684          1.101929
  67         V                 0.047031          1.293860
  68         V                 0.053220          1.118417
  69         V                 0.072690          1.294423
  70         V                 0.075170          1.090728
  71         V                 0.077118          1.070212
  72         V                 0.077735          1.082195
  73         V                 0.089670          1.379645
  74         V                 0.097882          1.290321
  75         V                 0.110472          1.651071
  76         V                 0.114903          1.636134
  77         V                 0.164069          2.286394
  78         V                 0.207320          1.189928
  79         V                 0.211264          2.048227
  80         V                 0.240287          1.270990
  81         V                 0.259373          1.598280
  82         V                 0.265840          1.415332
  83         V                 0.285840          1.849237
  84         V                 0.318870          2.531988
  85         V                 0.356601          1.859712
  86         V                 0.365371          1.781001
  87         V                 0.367895          1.750616
  88         V                 0.385930          2.247983
  89         V                 0.388535          2.358068
  90         V                 0.411973          2.066121
  91         V                 0.415275          1.935816
  92         V                 0.420366          1.855960
  93         V                 0.424567          2.706823
  94         V                 0.449985          2.070802
  95         V                 0.450203          1.946787
  96         V                 0.455532          1.972793
  97         V                 0.463442          1.827347
  98         V                 0.469776          1.757034
  99         V                 0.489635          2.123624
 100         V                 0.492850          2.401882
 101         V                 0.497028          2.068561
 102         V                 0.503876          2.000257
 103         V                 0.507177          2.340589
 104         V                 0.542172          2.313591
 105         V                 0.549315          2.184689
 106         V                 0.560574          2.047433
 107         V                 0.582846          2.241626
 108         V                 0.587635          2.154478
 109         V                 0.589026          2.163422
 110         V                 0.623976          2.159661
 111         V                 0.634414          2.283778
 112         V                 0.635325          2.278805
 113         V                 0.674897          2.547551
 114         V                 0.677556          2.582369
 115         V                 0.692668          2.644251
 116         V                 0.702539          2.622227
 117         V                 0.709114          2.655196
 118         V                 0.709947          2.531992
 119         V                 0.719627          2.588780
 120         V                 0.721328          2.311851
 121         V                 0.727421          2.368419
 122         V                 0.731150          2.505425
 123         V                 0.732304          2.485315
 124         V                 0.756520          2.627214
 125         V                 0.756795          2.573418
 126         V                 0.774662          2.467019
 127         V                 0.774816          2.302595
 128         V                 0.778973          2.488655
 129         V                 0.779597          2.438115
 130         V                 0.792520          2.531844
 131         V                 0.799139          2.429197
 132         V                 0.807691          2.428944
 133         V                 0.812333          2.418953
 134         V                 0.839206          2.381687
 135         V                 0.845352          2.374761
 136         V                 0.867019          2.401613
 137         V                 0.872904          2.341491
 138         V                 0.918833          2.367088
 139         V                 0.923156          2.144692
 140         V                 0.926523          2.106289
 141         V                 0.955415          2.483171
 142         V                 0.964270          2.206154
 143         V                 1.020897          2.302855
 144         V                 1.100223          2.381073
 145         V                 1.124318          2.403481
 146         V                 1.136670          2.370513
 147         V                 1.137387          2.659443
 148         V                 1.140213          2.368941
 149         V                 1.157596          2.452122
 150         V                 1.165092          2.473474
 151         V                 1.185569          2.319348
 152         V                 1.188099          2.432987
 153         V                 1.192708          2.475209
 154         V                 1.194794          2.442440
 155         V                 1.227466          2.455611
 156         V                 1.230532          2.632423
 157         V                 1.254326          2.685090
 158         V                 1.256557          2.636039
 159         V                 1.280503          2.498697
 160         V                 1.299446          2.625081
 161         V                 1.337262          2.535938
 162         V                 1.380152          2.548605
 163         V                 1.390973          2.565999
 164         V                 1.399074          2.624782
 165         V                 1.410629          2.768426
 166         V                 1.531811          2.874346
 167         V                 1.532757          2.862733
 168         V                 1.590011          2.744501
 169         V                 1.590511          2.745609
 170         V                 1.684945          2.979778
 171         V                 1.688871          2.969636
 172         V                 1.690026          2.881309
 173         V                 1.708667          2.918515
 174         V                 1.708813          3.176852
 175         V                 1.710025          3.187296
 176         V                 1.722945          3.068095
 177         V                 1.756647          3.209039
 178         V                 1.758420          2.944262
 179         V                 1.769881          3.325520
 180         V                 1.805260          3.599221
 181         V                 1.806763          3.603619
 182         V                 1.822198          3.018190
 183         V                 1.823815          3.383748
 184         V                 1.825699          3.453478
 185         V                 1.833734          3.496208
 186         V                 1.864786          3.426285
 187         V                 1.890974          3.125284
 188         V                 1.905890          3.359704
 189         V                 1.908169          2.893315
 190         V                 1.909554          2.857120
 191         V                 1.910373          2.849460
 192         V                 1.910402          2.847866
 193         V                 1.928692          3.136459
 194         V                 1.949066          3.135113
 195         V                 1.951213          3.128181
 196         V                 1.957298          3.168937
 197         V                 1.966625          3.307334
 198         V                 1.968065          3.303545
 199         V                 1.998835          3.499015
 200         V                 2.005799          3.300164
 201         V                 2.014961          3.273168
 202         V                 2.016045          3.211211
 203         V                 2.020520          3.271954
 204         V                 2.022953          3.345888
 205         V                 2.078174          3.456445
 206         V                 2.088377          3.466605
 207         V                 2.094592          3.262470
 208         V                 2.133181          3.656183
 209         V                 2.150803          3.313813
 210         V                 2.196425          3.378419
 211         V                 2.212131          3.562507
 212         V                 2.217053          3.433087
 213         V                 2.228450          3.646268
 214         V                 2.234272          3.688781
 215         V                 2.256407          3.459525
 216         V                 2.259297          3.669274
 217         V                 2.300361          3.314402
 218         V                 2.333217          3.439688
 219         V                 2.333955          3.417082
 220         V                 2.357002          3.518071
 221         V                 2.363907          3.932897
 222         V                 2.385022          3.515886
 223         V                 2.398993          3.686778
 224         V                 2.403487          3.888108
 225         V                 2.435202          3.576992
 226         V                 2.436378          3.648335
 227         V                 2.439224          3.987118
 228         V                 2.448448          3.614280
 229         V                 2.481506          3.698751
 230         V                 2.486182          3.688270
 231         V                 2.505065          3.692067
 232         V                 2.505230          3.737898
 233         V                 2.518879          3.764740
 234         V                 2.550878          3.637273
 235         V                 2.569125          3.802057
 236         V                 2.574459          3.825366
 237         V                 2.575364          3.769405
 238         V                 2.576310          3.730895
 239         V                 2.595188          4.163546
 240         V                 2.603234          3.901826
 241         V                 2.645366          4.158422
 242         V                 2.666859          3.914920
 243         V                 2.679582          4.077719
 244         V                 2.699105          3.915591
 245         V                 2.721177          3.877401
 246         V                 2.721855          3.880361
 247         V                 2.730887          4.145358
 248         V                 2.753330          4.065329
 249         V                 2.759002          4.343559
 250         V                 2.763571          3.950444
 251         V                 2.763972          3.952206
 252         V                 2.810028          4.674846
 253         V                 2.851680          4.393425
 254         V                 2.865042          4.418664
 255         V                 2.954093          4.606367
 256         V                 2.958136          4.564450
 257         V                 2.985648          4.815604
 258         V                 2.985821          4.765586
 259         V                 3.060704          4.893723
 260         V                 3.061447          4.895990
 261         V                 3.103401          4.976642
 262         V                 3.104836          4.984144
 263         V                 3.242818          5.347640
 264         V                 3.263636          5.192716
 265         V                 3.290236          5.152190
 266         V                 3.291553          5.064508
 267         V                 3.291677          5.066078
 268         V                 3.295785          5.074635
 269         V                 3.295795          5.074643
 270         V                 3.321487          5.082362
 271         V                 3.322170          5.121674
 272         V                 3.334537          5.180354
 273         V                 3.387050          5.231608
 274         V                 3.419794          5.272391
 275         V                 3.468043          5.338990
 276         V                 3.531077          5.431289
 277         V                 3.556214          5.428823
 278         V                 3.910947         10.337929
 279         V                 3.931119         10.356555
 280         V                 4.012928         10.163902
 281         V                 4.028191         10.151531
 282         V                 4.075235         10.097737
 283         V                 4.137242          9.986865
 284         V                 4.262044          9.916431
 285         V                 4.343180         10.007182
 286         V                 4.346845          9.972165
 287         V                 4.351502         10.058787
 288         V                 4.415378         10.064852
 289         V                 4.514120          9.924111
 290         V                 4.620002          9.848350
 Total kinetic energy from orbitals= 5.345105912671D+02
 Leave Link  601 at Wed Jun  9 11:38:45 2021, MaxMem=    33554432 cpu:         0.9
 (Enter /opt/app/gaussian09/e01/g09/l9999.exe)
 1\1\GINC-NB-0221\SP\RB3LYP TD-FC\6-31G(d,p)\C11H19N2(1+)\ROOT\09-Jun-2
 021\0\\#p td(NStates=10) b3lyp/6-31g(d,p) nosymm pop=full\\td\\1,1\C,0
 ,-1.21999989,-0.33499842,0.00013461\H,0,-1.18639148,-1.42554245,0.0003
 0092\C,0,0.00001078,0.33782648,-0.00011438\H,0,0.00001527,1.4258821,-0
 .00020266\C,0,1.22002893,-0.33499934,-0.00023434\H,0,1.18642348,-1.425
 5446,-0.00012243\C,0,2.48133923,0.26763064,-0.0003184\H,0,2.54718548,1
 .35065962,-0.00015822\C,0,-2.48131602,0.2676404,0.00018474\H,0,-2.5471
 4238,1.35066827,-0.00021004\C,0,-3.63623292,-0.50761979,0.00021363\H,0
 ,-3.53438458,-1.59036238,-0.00076382\N,0,4.89226636,-0.06466775,-0.000
 98153\C,0,3.63623942,-0.50763272,-0.00021097\H,0,3.53439269,-1.5903752
 ,0.00057763\N,0,-4.89228659,-0.06466534,0.00110917\C,0,-6.0289382,-0.9
 8606265,-0.00247606\H,0,-6.64360927,-0.82490434,-0.89366186\H,0,-5.670
 81691,-2.01600574,-0.00263786\H,0,-6.64771204,-0.8265265,0.88611318\C,
 0,-5.18909425,1.36967776,0.00224702\H,0,-4.76619927,1.8494881,0.890415
 22\H,0,-4.77934175,1.84876513,-0.89256813\H,0,-6.26941063,1.50882266,0
 .01029484\C,0,5.18904964,1.36968526,-0.00212541\H,0,4.76740576,1.84926
 25,-0.89101405\H,0,4.77801024,1.84894493,0.89200018\H,0,6.26937671,1.5
 0883996,-0.00866611\C,0,6.02894503,-0.98604898,0.00254078\H,0,6.647348
 92,-0.82691571,-0.88638395\H,0,6.64396292,-0.824425,0.89339496\H,0,5.6
 7083792,-2.01599165,0.0033514\\Version=ES64L-G09RevE.01\HF=-539.910638
 1\RMSD=3.789e-09\PG=C01 [X(C11H19N2)]\\@


 READER, WHETHER YOU BE DILETTANTE OR PROFESSOR ... SHOW YOURSELF TO BE
 MORE HUMAN THAN CRITICAL, AND THEN YOUR PLEASURE WILL INCREASE.
                                           -- DOMENICO SCARLATTI (1738)
 Job cpu time:       0 days  0 hours 14 minutes 30.7 seconds.
 File lengths (MBytes):  RWF=    225 Int=      0 D2E=      0 Chk=     53 Scr=      1
 Normal termination of Gaussian 09 at Wed Jun  9 11:38:45 2021.
