td                                                                      
SP        RB3LYP TD-FC                                                6-31G(d,p)          
Number of atoms                            I               32
Info1-9                                    I   N=           9
          72          39           0           0           0         110
           1         218        -501
Charge                                     I                1
Multiplicity                               I                1
Number of electrons                        I               98
Number of alpha electrons                  I               49
Number of beta electrons                   I               49
Number of basis functions                  I              290
Number of independent functions            I              290
Number of point charges in /Mol/           I                0
Number of translation vectors              I                0
Atomic numbers                             I   N=          32
           6           1           6           1           6           1
           6           1           6           1           6           1
           7           6           1           7           6           1
           1           1           6           1           1           1
           6           1           1           1           6           1
           1           1
Nuclear charges                            R   N=          32
  6.00000000E+00  1.00000000E+00  6.00000000E+00  1.00000000E+00  6.00000000E+00
  1.00000000E+00  6.00000000E+00  1.00000000E+00  6.00000000E+00  1.00000000E+00
  6.00000000E+00  1.00000000E+00  7.00000000E+00  6.00000000E+00  1.00000000E+00
  7.00000000E+00  6.00000000E+00  1.00000000E+00  1.00000000E+00  1.00000000E+00
  6.00000000E+00  1.00000000E+00  1.00000000E+00  1.00000000E+00  6.00000000E+00
  1.00000000E+00  1.00000000E+00  1.00000000E+00  6.00000000E+00  1.00000000E+00
  1.00000000E+00  1.00000000E+00
Current cartesian coordinates              R   N=          96
 -2.30546567E+00 -6.33055269E-01  2.54376035E-04 -2.24195498E+00 -2.69388482E+00
  5.68656388E-04  2.03712477E-05  6.38399528E-01 -2.16146875E-04  2.88561180E-05
  2.69452667E+00 -3.82971898E-04  2.30552055E+00 -6.33057007E-01 -4.42838422E-04
  2.24201545E+00 -2.69388888E+00 -2.31359170E-04  4.68905159E+00  5.05748614E-01
 -6.01688801E-04  4.81348297E+00  2.55237678E+00 -2.98992469E-04 -4.68900773E+00
  5.05767058E-01  3.49108006E-04 -4.81340152E+00  2.55239313E+00 -3.96918077E-04
 -6.87148437E+00 -9.59262383E-01  4.03702194E-04 -6.67901890E+00 -3.00534935E+00
 -1.44341061E-03  9.24504359E+00 -1.22204337E-01 -1.85482289E-03  6.87149666E+00
 -9.59286817E-01 -3.98675522E-04  6.67903423E+00 -3.00537358E+00  1.09156251E-03
 -9.24508182E+00 -1.22199783E-01  2.09602753E-03 -1.13930421E+01 -1.86338836E+00
 -4.67907529E-03 -1.25546021E+01 -1.55884329E+00 -1.68877617E+00 -1.07162909E+01
 -3.80969873E+00 -4.98483298E-03 -1.25623552E+01 -1.56190873E+00  1.67451123E+00
 -9.80596701E+00  2.58831586E+00  4.24625242E-03 -9.00681132E+00  3.49502600E+00
  1.68264091E+00 -9.03164700E+00  3.49365978E+00 -1.68670932E+00 -1.18474691E+01
  2.85126161E+00  1.94544282E-02  9.80588271E+00  2.58833003E+00 -4.01644282E-03
  9.00909125E+00  3.49459967E+00 -1.68377254E+00  9.02913081E+00  3.49399955E+00
  1.68563605E+00  1.18474050E+01  2.85129430E+00 -1.63765745E-02  1.13930550E+01
 -1.86336253E+00  4.80137836E-03  1.25616690E+01 -1.56264423E+00 -1.67502291E+00
  1.25552704E+01 -1.55793747E+00  1.68827180E+00  1.07163306E+01 -3.80967210E+00
  6.33322816E-03
Force Field                                I                0
Int Atom Types                             I   N=          32
           0           0           0           0           0           0
           0           0           0           0           0           0
           0           0           0           0           0           0
           0           0           0           0           0           0
           0           0           0           0           0           0
           0           0
MM charges                                 R   N=          32
  0.00000000E+00  0.00000000E+00  0.00000000E+00  0.00000000E+00  0.00000000E+00
  0.00000000E+00  0.00000000E+00  0.00000000E+00  0.00000000E+00  0.00000000E+00
  0.00000000E+00  0.00000000E+00  0.00000000E+00  0.00000000E+00  0.00000000E+00
  0.00000000E+00  0.00000000E+00  0.00000000E+00  0.00000000E+00  0.00000000E+00
  0.00000000E+00  0.00000000E+00  0.00000000E+00  0.00000000E+00  0.00000000E+00
  0.00000000E+00  0.00000000E+00  0.00000000E+00  0.00000000E+00  0.00000000E+00
  0.00000000E+00  0.00000000E+00
Integer atomic weights                     I   N=          32
          12           1          12           1          12           1
          12           1          12           1          12           1
          14          12           1          14          12           1
           1           1          12           1           1           1
          12           1           1           1          12           1
           1           1
Real atomic weights                        R   N=          32
  1.20000000E+01  1.00782504E+00  1.20000000E+01  1.00782504E+00  1.20000000E+01
  1.00782504E+00  1.20000000E+01  1.00782504E+00  1.20000000E+01  1.00782504E+00
  1.20000000E+01  1.00782504E+00  1.40030740E+01  1.20000000E+01  1.00782504E+00
  1.40030740E+01  1.20000000E+01  1.00782504E+00  1.00782504E+00  1.00782504E+00
  1.20000000E+01  1.00782504E+00  1.00782504E+00  1.00782504E+00  1.20000000E+01
  1.00782504E+00  1.00782504E+00  1.00782504E+00  1.20000000E+01  1.00782504E+00
  1.00782504E+00  1.00782504E+00
Atom fragment info                         I   N=          32
           0           0           0           0           0           0
           0           0           0           0           0           0
           0           0           0           0           0           0
           0           0           0           0           0           0
           0           0           0           0           0           0
           0           0
Atom residue num                           I   N=          32
           0           0           0           0           0           0
           0           0           0           0           0           0
           0           0           0           0           0           0
           0           0           0           0           0           0
           0           0           0           0           0           0
           0           0
Nuclear spins                              I   N=          32
           0           1           0           1           0           1
           0           1           0           1           0           1
           2           0           1           2           0           1
           1           1           0           1           1           1
           0           1           1           1           0           1
           1           1
Nuclear ZEff                               R   N=          32
 -3.60000000E+00 -1.00000000E+00 -3.60000000E+00 -1.00000000E+00 -3.60000000E+00
 -1.00000000E+00 -3.60000000E+00 -1.00000000E+00 -3.60000000E+00 -1.00000000E+00
 -3.60000000E+00 -1.00000000E+00 -4.55000000E+00 -3.60000000E+00 -1.00000000E+00
 -4.55000000E+00 -3.60000000E+00 -1.00000000E+00 -1.00000000E+00 -1.00000000E+00
 -3.60000000E+00 -1.00000000E+00 -1.00000000E+00 -1.00000000E+00 -3.60000000E+00
 -1.00000000E+00 -1.00000000E+00 -1.00000000E+00 -3.60000000E+00 -1.00000000E+00
 -1.00000000E+00 -1.00000000E+00
Nuclear ZNuc                               R   N=          32
  6.00000000E+00  1.00000000E+00  6.00000000E+00  1.00000000E+00  6.00000000E+00
  1.00000000E+00  6.00000000E+00  1.00000000E+00  6.00000000E+00  1.00000000E+00
  6.00000000E+00  1.00000000E+00  7.00000000E+00  6.00000000E+00  1.00000000E+00
  7.00000000E+00  6.00000000E+00  1.00000000E+00  1.00000000E+00  1.00000000E+00
  6.00000000E+00  1.00000000E+00  1.00000000E+00  1.00000000E+00  6.00000000E+00
  1.00000000E+00  1.00000000E+00  1.00000000E+00  6.00000000E+00  1.00000000E+00
  1.00000000E+00  1.00000000E+00
Nuclear QMom                               R   N=          32
  0.00000000E+00  0.00000000E+00  0.00000000E+00  0.00000000E+00  0.00000000E+00
  0.00000000E+00  0.00000000E+00  0.00000000E+00  0.00000000E+00  0.00000000E+00
  0.00000000E+00  0.00000000E+00  2.04400000E+00  0.00000000E+00  0.00000000E+00
  2.04400000E+00  0.00000000E+00  0.00000000E+00  0.00000000E+00  0.00000000E+00
  0.00000000E+00  0.00000000E+00  0.00000000E+00  0.00000000E+00  0.00000000E+00
  0.00000000E+00  0.00000000E+00  0.00000000E+00  0.00000000E+00  0.00000000E+00
  0.00000000E+00  0.00000000E+00
Nuclear GFac                               R   N=          32
  0.00000000E+00  2.79284600E+00  0.00000000E+00  2.79284600E+00  0.00000000E+00
  2.79284600E+00  0.00000000E+00  2.79284600E+00  0.00000000E+00  2.79284600E+00
  0.00000000E+00  2.79284600E+00  4.03761000E-01  0.00000000E+00  2.79284600E+00
  4.03761000E-01  0.00000000E+00  2.79284600E+00  2.79284600E+00  2.79284600E+00
  0.00000000E+00  2.79284600E+00  2.79284600E+00  2.79284600E+00  0.00000000E+00
  2.79284600E+00  2.79284600E+00  2.79284600E+00  0.00000000E+00  2.79284600E+00
  2.79284600E+00  2.79284600E+00
MicOpt                                     I   N=          32
          -1          -1          -1          -1          -1          -1
          -1          -1          -1          -1          -1          -1
          -1          -1          -1          -1          -1          -1
          -1          -1          -1          -1          -1          -1
          -1          -1          -1          -1          -1          -1
          -1          -1
SymInf integers                            I   N=          26
           1           1           1           1           1           0
           0           0           0           0           0           0
           0           0           0           0           0           0
           0           0           0           0           0           0
           0           0
RotTr to input orientation                 R   N=          12
  1.00000000E+00  1.61423708E-10  0.00000000E+00  1.61423708E-10 -1.00000000E+00
  0.00000000E+00  0.00000000E+00  0.00000000E+00 -1.00000000E+00  2.98377777E-09
 -5.96755562E-10 -1.79026686E-09
Number of contracted shells                I              109
Number of primitive shells                 I              238
Pure/Cartesian d shells                    I                1
Pure/Cartesian f shells                    I                0
Highest angular momentum                   I                2
Largest degree of contraction              I                6
Shell types                                I   N=         109
           0          -1          -1           2           0           0
           1           0          -1          -1           2           0
           0           1           0          -1          -1           2
           0           0           1           0          -1          -1
           2           0           0           1           0          -1
          -1           2           0           0           1           0
          -1          -1           2           0           0           1
           0          -1          -1           2           0          -1
          -1           2           0           0           1           0
          -1          -1           2           0          -1          -1
           2           0           0           1           0           0
           1           0           0           1           0          -1
          -1           2           0           0           1           0
           0           1           0           0           1           0
          -1          -1           2           0           0           1
           0           0           1           0           0           1
           0          -1          -1           2           0           0
           1           0           0           1           0           0
           1
Number of primitives per shell             I   N=         109
           6           3           1           1           3           1
           1           6           3           1           1           3
           1           1           6           3           1           1
           3           1           1           6           3           1
           1           3           1           1           6           3
           1           1           3           1           1           6
           3           1           1           3           1           1
           6           3           1           1           6           3
           1           1           3           1           1           6
           3           1           1           6           3           1
           1           3           1           1           3           1
           1           3           1           1           6           3
           1           1           3           1           1           3
           1           1           3           1           1           6
           3           1           1           3           1           1
           3           1           1           3           1           1
           6           3           1           1           3           1
           1           3           1           1           3           1
           1
Shell to atom map                          I   N=         109
           1           1           1           1           2           2
           2           3           3           3           3           4
           4           4           5           5           5           5
           6           6           6           7           7           7
           7           8           8           8           9           9
           9           9          10          10          10          11
          11          11          11          12          12          12
          13          13          13          13          14          14
          14          14          15          15          15          16
          16          16          16          17          17          17
          17          18          18          18          19          19
          19          20          20          20          21          21
          21          21          22          22          22          23
          23          23          24          24          24          25
          25          25          25          26          26          26
          27          27          27          28          28          28
          29          29          29          29          30          30
          30          31          31          31          32          32
          32
Primitive exponents                        R   N=         238
  3.04752488E+03  4.57369518E+02  1.03948685E+02  2.92101553E+01  9.28666296E+00
  3.16392696E+00  7.86827235E+00  1.88128854E+00  5.44249258E-01  1.68714478E-01
  8.00000000E-01  1.87311370E+01  2.82539436E+00  6.40121692E-01  1.61277759E-01
  1.10000000E+00  3.04752488E+03  4.57369518E+02  1.03948685E+02  2.92101553E+01
  9.28666296E+00  3.16392696E+00  7.86827235E+00  1.88128854E+00  5.44249258E-01
  1.68714478E-01  8.00000000E-01  1.87311370E+01  2.82539436E+00  6.40121692E-01
  1.61277759E-01  1.10000000E+00  3.04752488E+03  4.57369518E+02  1.03948685E+02
  2.92101553E+01  9.28666296E+00  3.16392696E+00  7.86827235E+00  1.88128854E+00
  5.44249258E-01  1.68714478E-01  8.00000000E-01  1.87311370E+01  2.82539436E+00
  6.40121692E-01  1.61277759E-01  1.10000000E+00  3.04752488E+03  4.57369518E+02
  1.03948685E+02  2.92101553E+01  9.28666296E+00  3.16392696E+00  7.86827235E+00
  1.88128854E+00  5.44249258E-01  1.68714478E-01  8.00000000E-01  1.87311370E+01
  2.82539436E+00  6.40121692E-01  1.61277759E-01  1.10000000E+00  3.04752488E+03
  4.57369518E+02  1.03948685E+02  2.92101553E+01  9.28666296E+00  3.16392696E+00
  7.86827235E+00  1.88128854E+00  5.44249258E-01  1.68714478E-01  8.00000000E-01
  1.87311370E+01  2.82539436E+00  6.40121692E-01  1.61277759E-01  1.10000000E+00
  3.04752488E+03  4.57369518E+02  1.03948685E+02  2.92101553E+01  9.28666296E+00
  3.16392696E+00  7.86827235E+00  1.88128854E+00  5.44249258E-01  1.68714478E-01
  8.00000000E-01  1.87311370E+01  2.82539436E+00  6.40121692E-01  1.61277759E-01
  1.10000000E+00  4.17351146E+03  6.27457911E+02  1.42902093E+02  4.02343293E+01
  1.28202129E+01  4.39043701E+00  1.16263619E+01  2.71627981E+00  7.72218397E-01
  2.12031498E-01  8.00000000E-01  3.04752488E+03  4.57369518E+02  1.03948685E+02
  2.92101553E+01  9.28666296E+00  3.16392696E+00  7.86827235E+00  1.88128854E+00
  5.44249258E-01  1.68714478E-01  8.00000000E-01  1.87311370E+01  2.82539436E+00
  6.40121692E-01  1.61277759E-01  1.10000000E+00  4.17351146E+03  6.27457911E+02
  1.42902093E+02  4.02343293E+01  1.28202129E+01  4.39043701E+00  1.16263619E+01
  2.71627981E+00  7.72218397E-01  2.12031498E-01  8.00000000E-01  3.04752488E+03
  4.57369518E+02  1.03948685E+02  2.92101553E+01  9.28666296E+00  3.16392696E+00
  7.86827235E+00  1.88128854E+00  5.44249258E-01  1.68714478E-01  8.00000000E-01
  1.87311370E+01  2.82539436E+00  6.40121692E-01  1.61277759E-01  1.10000000E+00
  1.87311370E+01  2.82539436E+00  6.40121692E-01  1.61277759E-01  1.10000000E+00
  1.87311370E+01  2.82539436E+00  6.40121692E-01  1.61277759E-01  1.10000000E+00
  3.04752488E+03  4.57369518E+02  1.03948685E+02  2.92101553E+01  9.28666296E+00
  3.16392696E+00  7.86827235E+00  1.88128854E+00  5.44249258E-01  1.68714478E-01
  8.00000000E-01  1.87311370E+01  2.82539436E+00  6.40121692E-01  1.61277759E-01
  1.10000000E+00  1.87311370E+01  2.82539436E+00  6.40121692E-01  1.61277759E-01
  1.10000000E+00  1.87311370E+01  2.82539436E+00  6.40121692E-01  1.61277759E-01
  1.10000000E+00  3.04752488E+03  4.57369518E+02  1.03948685E+02  2.92101553E+01
  9.28666296E+00  3.16392696E+00  7.86827235E+00  1.88128854E+00  5.44249258E-01
  1.68714478E-01  8.00000000E-01  1.87311370E+01  2.82539436E+00  6.40121692E-01
  1.61277759E-01  1.10000000E+00  1.87311370E+01  2.82539436E+00  6.40121692E-01
  1.61277759E-01  1.10000000E+00  1.87311370E+01  2.82539436E+00  6.40121692E-01
  1.61277759E-01  1.10000000E+00  3.04752488E+03  4.57369518E+02  1.03948685E+02
  2.92101553E+01  9.28666296E+00  3.16392696E+00  7.86827235E+00  1.88128854E+00
  5.44249258E-01  1.68714478E-01  8.00000000E-01  1.87311370E+01  2.82539436E+00
  6.40121692E-01  1.61277759E-01  1.10000000E+00  1.87311370E+01  2.82539436E+00
  6.40121692E-01  1.61277759E-01  1.10000000E+00  1.87311370E+01  2.82539436E+00
  6.40121692E-01  1.61277759E-01  1.10000000E+00
Contraction coefficients                   R   N=         238
  1.83473713E-03  1.40373228E-02  6.88426223E-02  2.32184443E-01  4.67941348E-01
  3.62311985E-01 -1.19332420E-01 -1.60854152E-01  1.14345644E+00  1.00000000E+00
  1.00000000E+00  3.34946043E-02  2.34726953E-01  8.13757326E-01  1.00000000E+00
  1.00000000E+00  1.83473713E-03  1.40373228E-02  6.88426223E-02  2.32184443E-01
  4.67941348E-01  3.62311985E-01 -1.19332420E-01 -1.60854152E-01  1.14345644E+00
  1.00000000E+00  1.00000000E+00  3.34946043E-02  2.34726953E-01  8.13757326E-01
  1.00000000E+00  1.00000000E+00  1.83473713E-03  1.40373228E-02  6.88426223E-02
  2.32184443E-01  4.67941348E-01  3.62311985E-01 -1.19332420E-01 -1.60854152E-01
  1.14345644E+00  1.00000000E+00  1.00000000E+00  3.34946043E-02  2.34726953E-01
  8.13757326E-01  1.00000000E+00  1.00000000E+00  1.83473713E-03  1.40373228E-02
  6.88426223E-02  2.32184443E-01  4.67941348E-01  3.62311985E-01 -1.19332420E-01
 -1.60854152E-01  1.14345644E+00  1.00000000E+00  1.00000000E+00  3.34946043E-02
  2.34726953E-01  8.13757326E-01  1.00000000E+00  1.00000000E+00  1.83473713E-03
  1.40373228E-02  6.88426223E-02  2.32184443E-01  4.67941348E-01  3.62311985E-01
 -1.19332420E-01 -1.60854152E-01  1.14345644E+00  1.00000000E+00  1.00000000E+00
  3.34946043E-02  2.34726953E-01  8.13757326E-01  1.00000000E+00  1.00000000E+00
  1.83473713E-03  1.40373228E-02  6.88426223E-02  2.32184443E-01  4.67941348E-01
  3.62311985E-01 -1.19332420E-01 -1.60854152E-01  1.14345644E+00  1.00000000E+00
  1.00000000E+00  3.34946043E-02  2.34726953E-01  8.13757326E-01  1.00000000E+00
  1.00000000E+00  1.83477216E-03  1.39946270E-02  6.85865518E-02  2.32240873E-01
  4.69069948E-01  3.60455199E-01 -1.14961182E-01 -1.69117479E-01  1.14585195E+00
  1.00000000E+00  1.00000000E+00  1.83473713E-03  1.40373228E-02  6.88426223E-02
  2.32184443E-01  4.67941348E-01  3.62311985E-01 -1.19332420E-01 -1.60854152E-01
  1.14345644E+00  1.00000000E+00  1.00000000E+00  3.34946043E-02  2.34726953E-01
  8.13757326E-01  1.00000000E+00  1.00000000E+00  1.83477216E-03  1.39946270E-02
  6.85865518E-02  2.32240873E-01  4.69069948E-01  3.60455199E-01 -1.14961182E-01
 -1.69117479E-01  1.14585195E+00  1.00000000E+00  1.00000000E+00  1.83473713E-03
  1.40373228E-02  6.88426223E-02  2.32184443E-01  4.67941348E-01  3.62311985E-01
 -1.19332420E-01 -1.60854152E-01  1.14345644E+00  1.00000000E+00  1.00000000E+00
  3.34946043E-02  2.34726953E-01  8.13757326E-01  1.00000000E+00  1.00000000E+00
  3.34946043E-02  2.34726953E-01  8.13757326E-01  1.00000000E+00  1.00000000E+00
  3.34946043E-02  2.34726953E-01  8.13757326E-01  1.00000000E+00  1.00000000E+00
  1.83473713E-03  1.40373228E-02  6.88426223E-02  2.32184443E-01  4.67941348E-01
  3.62311985E-01 -1.19332420E-01 -1.60854152E-01  1.14345644E+00  1.00000000E+00
  1.00000000E+00  3.34946043E-02  2.34726953E-01  8.13757326E-01  1.00000000E+00
  1.00000000E+00  3.34946043E-02  2.34726953E-01  8.13757326E-01  1.00000000E+00
  1.00000000E+00  3.34946043E-02  2.34726953E-01  8.13757326E-01  1.00000000E+00
  1.00000000E+00  1.83473713E-03  1.40373228E-02  6.88426223E-02  2.32184443E-01
  4.67941348E-01  3.62311985E-01 -1.19332420E-01 -1.60854152E-01  1.14345644E+00
  1.00000000E+00  1.00000000E+00  3.34946043E-02  2.34726953E-01  8.13757326E-01
  1.00000000E+00  1.00000000E+00  3.34946043E-02  2.34726953E-01  8.13757326E-01
  1.00000000E+00  1.00000000E+00  3.34946043E-02  2.34726953E-01  8.13757326E-01
  1.00000000E+00  1.00000000E+00  1.83473713E-03  1.40373228E-02  6.88426223E-02
  2.32184443E-01  4.67941348E-01  3.62311985E-01 -1.19332420E-01 -1.60854152E-01
  1.14345644E+00  1.00000000E+00  1.00000000E+00  3.34946043E-02  2.34726953E-01
  8.13757326E-01  1.00000000E+00  1.00000000E+00  3.34946043E-02  2.34726953E-01
  8.13757326E-01  1.00000000E+00  1.00000000E+00  3.34946043E-02  2.34726953E-01
  8.13757326E-01  1.00000000E+00  1.00000000E+00
P(S=P) Contraction coefficients            R   N=         238
  0.00000000E+00  0.00000000E+00  0.00000000E+00  0.00000000E+00  0.00000000E+00
  0.00000000E+00  6.89990666E-02  3.16423961E-01  7.44308291E-01  1.00000000E+00
  0.00000000E+00  0.00000000E+00  0.00000000E+00  0.00000000E+00  0.00000000E+00
  0.00000000E+00  0.00000000E+00  0.00000000E+00  0.00000000E+00  0.00000000E+00
  0.00000000E+00  0.00000000E+00  6.89990666E-02  3.16423961E-01  7.44308291E-01
  1.00000000E+00  0.00000000E+00  0.00000000E+00  0.00000000E+00  0.00000000E+00
  0.00000000E+00  0.00000000E+00  0.00000000E+00  0.00000000E+00  0.00000000E+00
  0.00000000E+00  0.00000000E+00  0.00000000E+00  6.89990666E-02  3.16423961E-01
  7.44308291E-01  1.00000000E+00  0.00000000E+00  0.00000000E+00  0.00000000E+00
  0.00000000E+00  0.00000000E+00  0.00000000E+00  0.00000000E+00  0.00000000E+00
  0.00000000E+00  0.00000000E+00  0.00000000E+00  0.00000000E+00  6.89990666E-02
  3.16423961E-01  7.44308291E-01  1.00000000E+00  0.00000000E+00  0.00000000E+00
  0.00000000E+00  0.00000000E+00  0.00000000E+00  0.00000000E+00  0.00000000E+00
  0.00000000E+00  0.00000000E+00  0.00000000E+00  0.00000000E+00  0.00000000E+00
  6.89990666E-02  3.16423961E-01  7.44308291E-01  1.00000000E+00  0.00000000E+00
  0.00000000E+00  0.00000000E+00  0.00000000E+00  0.00000000E+00  0.00000000E+00
  0.00000000E+00  0.00000000E+00  0.00000000E+00  0.00000000E+00  0.00000000E+00
  0.00000000E+00  6.89990666E-02  3.16423961E-01  7.44308291E-01  1.00000000E+00
  0.00000000E+00  0.00000000E+00  0.00000000E+00  0.00000000E+00  0.00000000E+00
  0.00000000E+00  0.00000000E+00  0.00000000E+00  0.00000000E+00  0.00000000E+00
  0.00000000E+00  0.00000000E+00  6.75797439E-02  3.23907296E-01  7.40895140E-01
  1.00000000E+00  0.00000000E+00  0.00000000E+00  0.00000000E+00  0.00000000E+00
  0.00000000E+00  0.00000000E+00  0.00000000E+00  6.89990666E-02  3.16423961E-01
  7.44308291E-01  1.00000000E+00  0.00000000E+00  0.00000000E+00  0.00000000E+00
  0.00000000E+00  0.00000000E+00  0.00000000E+00  0.00000000E+00  0.00000000E+00
  0.00000000E+00  0.00000000E+00  0.00000000E+00  0.00000000E+00  6.75797439E-02
  3.23907296E-01  7.40895140E-01  1.00000000E+00  0.00000000E+00  0.00000000E+00
  0.00000000E+00  0.00000000E+00  0.00000000E+00  0.00000000E+00  0.00000000E+00
  6.89990666E-02  3.16423961E-01  7.44308291E-01  1.00000000E+00  0.00000000E+00
  0.00000000E+00  0.00000000E+00  0.00000000E+00  0.00000000E+00  0.00000000E+00
  0.00000000E+00  0.00000000E+00  0.00000000E+00  0.00000000E+00  0.00000000E+00
  0.00000000E+00  0.00000000E+00  0.00000000E+00  0.00000000E+00  0.00000000E+00
  0.00000000E+00  0.00000000E+00  0.00000000E+00  0.00000000E+00  0.00000000E+00
  0.00000000E+00  6.89990666E-02  3.16423961E-01  7.44308291E-01  1.00000000E+00
  0.00000000E+00  0.00000000E+00  0.00000000E+00  0.00000000E+00  0.00000000E+00
  0.00000000E+00  0.00000000E+00  0.00000000E+00  0.00000000E+00  0.00000000E+00
  0.00000000E+00  0.00000000E+00  0.00000000E+00  0.00000000E+00  0.00000000E+00
  0.00000000E+00  0.00000000E+00  0.00000000E+00  0.00000000E+00  0.00000000E+00
  0.00000000E+00  0.00000000E+00  6.89990666E-02  3.16423961E-01  7.44308291E-01
  1.00000000E+00  0.00000000E+00  0.00000000E+00  0.00000000E+00  0.00000000E+00
  0.00000000E+00  0.00000000E+00  0.00000000E+00  0.00000000E+00  0.00000000E+00
  0.00000000E+00  0.00000000E+00  0.00000000E+00  0.00000000E+00  0.00000000E+00
  0.00000000E+00  0.00000000E+00  0.00000000E+00  0.00000000E+00  0.00000000E+00
  0.00000000E+00  0.00000000E+00  0.00000000E+00  6.89990666E-02  3.16423961E-01
  7.44308291E-01  1.00000000E+00  0.00000000E+00  0.00000000E+00  0.00000000E+00
  0.00000000E+00  0.00000000E+00  0.00000000E+00  0.00000000E+00  0.00000000E+00
  0.00000000E+00  0.00000000E+00  0.00000000E+00  0.00000000E+00  0.00000000E+00
  0.00000000E+00  0.00000000E+00  0.00000000E+00
Coordinates of each shell                  R   N=         327
 -2.30546567E+00 -6.33055269E-01  2.54376035E-04 -2.30546567E+00 -6.33055269E-01
  2.54376035E-04 -2.30546567E+00 -6.33055269E-01  2.54376035E-04 -2.30546567E+00
 -6.33055269E-01  2.54376035E-04 -2.24195498E+00 -2.69388482E+00  5.68656388E-04
 -2.24195498E+00 -2.69388482E+00  5.68656388E-04 -2.24195498E+00 -2.69388482E+00
  5.68656388E-04  2.03712477E-05  6.38399528E-01 -2.16146875E-04  2.03712477E-05
  6.38399528E-01 -2.16146875E-04  2.03712477E-05  6.38399528E-01 -2.16146875E-04
  2.03712477E-05  6.38399528E-01 -2.16146875E-04  2.88561180E-05  2.69452667E+00
 -3.82971898E-04  2.88561180E-05  2.69452667E+00 -3.82971898E-04  2.88561180E-05
  2.69452667E+00 -3.82971898E-04  2.30552055E+00 -6.33057007E-01 -4.42838422E-04
  2.30552055E+00 -6.33057007E-01 -4.42838422E-04  2.30552055E+00 -6.33057007E-01
 -4.42838422E-04  2.30552055E+00 -6.33057007E-01 -4.42838422E-04  2.24201545E+00
 -2.69388888E+00 -2.31359170E-04  2.24201545E+00 -2.69388888E+00 -2.31359170E-04
  2.24201545E+00 -2.69388888E+00 -2.31359170E-04  4.68905159E+00  5.05748614E-01
 -6.01688801E-04  4.68905159E+00  5.05748614E-01 -6.01688801E-04  4.68905159E+00
  5.05748614E-01 -6.01688801E-04  4.68905159E+00  5.05748614E-01 -6.01688801E-04
  4.81348297E+00  2.55237678E+00 -2.98992469E-04  4.81348297E+00  2.55237678E+00
 -2.98992469E-04  4.81348297E+00  2.55237678E+00 -2.98992469E-04 -4.68900773E+00
  5.05767058E-01  3.49108006E-04 -4.68900773E+00  5.05767058E-01  3.49108006E-04
 -4.68900773E+00  5.05767058E-01  3.49108006E-04 -4.68900773E+00  5.05767058E-01
  3.49108006E-04 -4.81340152E+00  2.55239313E+00 -3.96918077E-04 -4.81340152E+00
  2.55239313E+00 -3.96918077E-04 -4.81340152E+00  2.55239313E+00 -3.96918077E-04
 -6.87148437E+00 -9.59262383E-01  4.03702194E-04 -6.87148437E+00 -9.59262383E-01
  4.03702194E-04 -6.87148437E+00 -9.59262383E-01  4.03702194E-04 -6.87148437E+00
 -9.59262383E-01  4.03702194E-04 -6.67901890E+00 -3.00534935E+00 -1.44341061E-03
 -6.67901890E+00 -3.00534935E+00 -1.44341061E-03 -6.67901890E+00 -3.00534935E+00
 -1.44341061E-03  9.24504359E+00 -1.22204337E-01 -1.85482289E-03  9.24504359E+00
 -1.22204337E-01 -1.85482289E-03  9.24504359E+00 -1.22204337E-01 -1.85482289E-03
  9.24504359E+00 -1.22204337E-01 -1.85482289E-03  6.87149666E+00 -9.59286817E-01
 -3.98675522E-04  6.87149666E+00 -9.59286817E-01 -3.98675522E-04  6.87149666E+00
 -9.59286817E-01 -3.98675522E-04  6.87149666E+00 -9.59286817E-01 -3.98675522E-04
  6.67903423E+00 -3.00537358E+00  1.09156251E-03  6.67903423E+00 -3.00537358E+00
  1.09156251E-03  6.67903423E+00 -3.00537358E+00  1.09156251E-03 -9.24508182E+00
 -1.22199783E-01  2.09602753E-03 -9.24508182E+00 -1.22199783E-01  2.09602753E-03
 -9.24508182E+00 -1.22199783E-01  2.09602753E-03 -9.24508182E+00 -1.22199783E-01
  2.09602753E-03 -1.13930421E+01 -1.86338836E+00 -4.67907529E-03 -1.13930421E+01
 -1.86338836E+00 -4.67907529E-03 -1.13930421E+01 -1.86338836E+00 -4.67907529E-03
 -1.13930421E+01 -1.86338836E+00 -4.67907529E-03 -1.25546021E+01 -1.55884329E+00
 -1.68877617E+00 -1.25546021E+01 -1.55884329E+00 -1.68877617E+00 -1.25546021E+01