 Entering Gaussian System, Link 0=/opt/app/gaussian09/e01/g09/g09.exec
 Input=6_pp_opt.gjf
 Output=6_pp_opt.log
 Initial command:
 /opt/app/gaussian09/e01/g09/l1.exe "./Gau-45579.inp" -scrdir="./"
 Entering Link 1 = /opt/app/gaussian09/e01/g09/l1.exe PID=     45583.
  
 Copyright (c) 1988,1990,1992,1993,1995,1998,2003,2009,2015,
            Gaussian, Inc.  All Rights Reserved.
  
 This is part of the Gaussian(R) 09 program.  It is based on
 the Gaussian(R) 03 system (copyright 2003, Gaussian, Inc.),
 the Gaussian(R) 98 system (copyright 1998, Gaussian, Inc.),
 the Gaussian(R) 94 system (copyright 1995, Gaussian, Inc.),
 the Gaussian 92(TM) system (copyright 1992, Gaussian, Inc.),
 the Gaussian 90(TM) system (copyright 1990, Gaussian, Inc.),
 the Gaussian 88(TM) system (copyright 1988, Gaussian, Inc.),
 the Gaussian 86(TM) system (copyright 1986, Carnegie Mellon
 University), and the Gaussian 82(TM) system (copyright 1983,
 Carnegie Mellon University). Gaussian is a federally registered
 trademark of Gaussian, Inc.
  
 This software contains proprietary and confidential information,
 including trade secrets, belonging to Gaussian, Inc.
  
 This software is provided under written license and may be
 used, copied, transmitted, or stored only in accord with that
 written license.
  
 The following legend is applicable only to US Government
 contracts under FAR:
  
                    RESTRICTED RIGHTS LEGEND
  
 Use, reproduction and disclosure by the US Government is
 subject to restrictions as set forth in subparagraphs (a)
 and (c) of the Commercial Computer Software - Restricted
 Rights clause in FAR 52.227-19.
  
 Gaussian, Inc.
 340 Quinnipiac St., Bldg. 40, Wallingford CT 06492
  
  
 ---------------------------------------------------------------
 Warning -- This program may not be used in any manner that
 competes with the business of Gaussian, Inc. or will provide
 assistance to any competitor of Gaussian, Inc.  The licensee
 of this program is prohibited from giving any competitor of
 Gaussian, Inc. access to this program.  By using this program,
 the user acknowledges that Gaussian, Inc. is engaged in the
 business of creating and licensing software in the field of
 computational chemistry and represents and warrants to the
 licensee that it is not a competitor of Gaussian, Inc. and that
 it will not use this program in any manner prohibited above.
 ---------------------------------------------------------------
  

 Cite this work as:
 Gaussian 09, Revision E.01,
 M. J. Frisch, G. W. Trucks, H. B. Schlegel, G. E. Scuseria, 
 M. A. Robb, J. R. Cheeseman, G. Scalmani, V. Barone, B. Mennucci, 
 G. A. Petersson, H. Nakatsuji, M. Caricato, X. Li, H. P. Hratchian, 
 A. F. Izmaylov, J. Bloino, G. Zheng, J. L. Sonnenberg, M. Hada, 
 M. Ehara, K. Toyota, R. Fukuda, J. Hasegawa, M. Ishida, T. Nakajima, 
 Y. Honda, O. Kitao, H. Nakai, T. Vreven, J. A. Montgomery, Jr., 
 J. E. Peralta, F. Ogliaro, M. Bearpark, J. J. Heyd, E. Brothers, 
 K. N. Kudin, V. N. Staroverov, T. Keith, R. Kobayashi, J. Normand, 
 K. Raghavachari, A. Rendell, J. C. Burant, S. S. Iyengar, J. Tomasi, 
 M. Cossi, N. Rega, J. M. Millam, M. Klene, J. E. Knox, J. B. Cross, 
 V. Bakken, C. Adamo, J. Jaramillo, R. Gomperts, R. E. Stratmann, 
 O. Yazyev, A. J. Austin, R. Cammi, C. Pomelli, J. W. Ochterski, 
 R. L. Martin, K. Morokuma, V. G. Zakrzewski, G. A. Voth, 
 P. Salvador, J. J. Dannenberg, S. Dapprich, A. D. Daniels, 
 O. Farkas, J. B. Foresman, J. V. Ortiz, J. Cioslowski, 
 and D. J. Fox, Gaussian, Inc., Wallingford CT, 2013.
 
 ******************************************
 Gaussian 09:  ES64L-G09RevE.01 30-Nov-2015
                 8-Jun-2021 
 ******************************************
 %chk=6_pp_opt.chk
 ---------------------------------------------------
 #p opt b3lyp/6-31g(d,p) geom=connectivity scf=tight
 ---------------------------------------------------
 1/14=-1,18=20,19=15,26=3,38=1,57=2/1,3;
 2/9=110,12=2,17=6,18=5,40=1/2;
 3/5=1,6=6,7=101,11=2,16=1,25=1,30=1,71=1,74=-5/1,2,3;
 4//1;
 5/5=2,32=2,38=5/2;
 6/7=2,8=2,9=2,10=2,28=1/1;
 7//1,2,3,16;
 1/14=-1,18=20,19=15,26=3/3(2);
 2/9=110/2;
 99//99;
 2/9=110/2;
 3/5=1,6=6,7=101,11=2,16=1,25=1,30=1,71=1,74=-5/1,2,3;
 4/5=5,16=3,69=1/1;
 5/5=2,32=2,38=5/2;
 7//1,2,3,16;
 1/14=-1,18=20,19=15,26=3/3(-5);
 2/9=110/2;
 6/7=2,8=2,9=2,10=2,19=2,28=1/1;
 99/9=1/99;
 Leave Link    1 at Tue Jun  8 16:11:53 2021, MaxMem=           0 cpu:         0.0
 (Enter /opt/app/gaussian09/e01/g09/l101.exe)
 ---
 opt
 ---
 Symbolic Z-matrix:
 Charge =  1 Multiplicity = 1
 C                    -2.55074   0.19572   0.01874 
 H                    -3.57924   0.28075   0.30129 
 C                    -1.83531   1.30781  -0.27789 
 H                    -0.80677   1.22271  -0.56037 
 C                    -2.50262   2.69397  -0.20843 
 H                    -3.53117   2.779     0.07395 
 C                    -1.8834   -1.19043  -0.05084 
 H                    -0.85492  -1.27549  -0.3335 
 C                    -2.59877  -2.30252   0.24595 
 H                    -3.62724  -2.21745   0.52873 
 N                    -1.96178  -3.62566   0.17939 
 C                    -1.78719   3.80609  -0.50495 
 H                    -0.75859   3.72108  -0.78716 
 C                    -2.4547    5.19219  -0.43576 
 H                    -3.48333   5.27712  -0.15374 
 C                    -1.73929   6.3044   -0.73201 
 H                    -0.71059   6.21954  -1.01396 
 C                    -2.4069    7.69043  -0.66278 
 H                    -3.4357    7.77519  -0.38111 
 C                    -1.6915    8.80279  -0.95855 
 H                    -0.66275   8.71807  -1.24035 
 C                    -2.35929   10.18874  -0.88898 
 H                    -3.38814   10.27332  -0.60756 
 C                    -1.64388   11.30125  -1.18409 
 H                    -0.61506   11.21668  -1.46569 
 N                    -1.62888   13.7492  -1.39512 
 C                    -2.31174   12.6871  -1.1141 
 H                    -3.34074   12.77149  -0.83296 
 C                    -2.26644   15.07205  -1.32798 
 H                    -1.75236   15.67987  -0.61302 
 H                    -2.22237   15.53845  -2.28997 
 H                    -3.28867   14.9607  -1.03209 
 C                    -0.21532   13.63338  -1.78155 
 H                     0.3351    13.17407  -0.98721 
 H                    -0.13484   13.03407  -2.6643 
 H                     0.18269   14.60769  -1.97441 
 C                    -2.9688   -4.63708  -0.17252 
 H                    -2.50537  -5.60034  -0.22002 
 H                    -3.73842  -4.6478    0.57076 
 H                    -3.39561  -4.39928  -1.12446 
 C                    -0.90513  -3.60997  -0.84244 
 H                    -1.28186  -3.16216  -1.73823 
 H                    -0.0709   -3.04374  -0.48419 
 H                    -0.5935   -4.6126   -1.04868 
 
 NAtoms=     44 NQM=       44 NQMF=       0 NMMI=      0 NMMIF=      0
                NMic=       0 NMicF=      0.
                    Isotopes and Nuclear Properties:
 (Nuclear quadrupole moments (NQMom) in fm**2, nuclear magnetic moments (NMagM)
  in nuclear magnetons)

  Atom         1           2           3           4           5           6           7           8           9          10
 IAtWgt=          12           1          12           1          12           1          12           1          12           1
 AtmWgt=  12.0000000   1.0078250  12.0000000   1.0078250  12.0000000   1.0078250  12.0000000   1.0078250  12.0000000   1.0078250
 NucSpn=           0           1           0           1           0           1           0           1           0           1
 AtZEff=   0.0000000   0.0000000   0.0000000   0.0000000   0.0000000   0.0000000   0.0000000   0.0000000   0.0000000   0.0000000
 NQMom=    0.0000000   0.0000000   0.0000000   0.0000000   0.0000000   0.0000000   0.0000000   0.0000000   0.0000000   0.0000000
 NMagM=    0.0000000   2.7928460   0.0000000   2.7928460   0.0000000   2.7928460   0.0000000   2.7928460   0.0000000   2.7928460
 AtZNuc=   6.0000000   1.0000000   6.0000000   1.0000000   6.0000000   1.0000000   6.0000000   1.0000000   6.0000000   1.0000000

  Atom        11          12          13          14          15          16          17          18          19          20
 IAtWgt=          14          12           1          12           1          12           1          12           1          12
 AtmWgt=  14.0030740  12.0000000   1.0078250  12.0000000   1.0078250  12.0000000   1.0078250  12.0000000   1.0078250  12.0000000
 NucSpn=           2           0           1           0           1           0           1           0           1           0
 AtZEff=   0.0000000   0.0000000   0.0000000   0.0000000   0.0000000   0.0000000   0.0000000   0.0000000   0.0000000   0.0000000
 NQMom=    2.0440000   0.0000000   0.0000000   0.0000000   0.0000000   0.0000000   0.0000000   0.0000000   0.0000000   0.0000000
 NMagM=    0.4037610   0.0000000   2.7928460   0.0000000   2.7928460   0.0000000   2.7928460   0.0000000   2.7928460   0.0000000
 AtZNuc=   7.0000000   6.0000000   1.0000000   6.0000000   1.0000000   6.0000000   1.0000000   6.0000000   1.0000000   6.0000000

  Atom        21          22          23          24          25          26          27          28          29          30
 IAtWgt=           1          12           1          12           1          14          12           1          12           1
 AtmWgt=   1.0078250  12.0000000   1.0078250  12.0000000   1.0078250  14.0030740  12.0000000   1.0078250  12.0000000   1.0078250
 NucSpn=           1           0           1           0           1           2           0           1           0           1
 AtZEff=   0.0000000   0.0000000   0.0000000   0.0000000   0.0000000   0.0000000   0.0000000   0.0000000   0.0000000   0.0000000
 NQMom=    0.0000000   0.0000000   0.0000000   0.0000000   0.0000000   2.0440000   0.0000000   0.0000000   0.0000000   0.0000000
 NMagM=    2.7928460   0.0000000   2.7928460   0.0000000   2.7928460   0.4037610   0.0000000   2.7928460   0.0000000   2.7928460
 AtZNuc=   1.0000000   6.0000000   1.0000000   6.0000000   1.0000000   7.0000000   6.0000000   1.0000000   6.0000000   1.0000000

  Atom        31          32          33          34          35          36          37          38          39          40
 IAtWgt=           1           1          12           1           1           1          12           1           1           1
 AtmWgt=   1.0078250   1.0078250  12.0000000   1.0078250   1.0078250   1.0078250  12.0000000   1.0078250   1.0078250   1.0078250
 NucSpn=           1           1           0           1           1           1           0           1           1           1
 AtZEff=   0.0000000   0.0000000   0.0000000   0.0000000   0.0000000   0.0000000   0.0000000   0.0000000   0.0000000   0.0000000
 NQMom=    0.0000000   0.0000000   0.0000000   0.0000000   0.0000000   0.0000000   0.0000000   0.0000000   0.0000000   0.0000000
 NMagM=    2.7928460   2.7928460   0.0000000   2.7928460   2.7928460   2.7928460   0.0000000   2.7928460   2.7928460   2.7928460
 AtZNuc=   1.0000000   1.0000000   6.0000000   1.0000000   1.0000000   1.0000000   6.0000000   1.0000000   1.0000000   1.0000000

  Atom        41          42          43          44
 IAtWgt=          12           1           1           1
 AtmWgt=  12.0000000   1.0078250   1.0078250   1.0078250
 NucSpn=           0           1           1           1
 AtZEff=   0.0000000   0.0000000   0.0000000   0.0000000
 NQMom=    0.0000000   0.0000000   0.0000000   0.0000000
 NMagM=    0.0000000   2.7928460   2.7928460   2.7928460
 AtZNuc=   6.0000000   1.0000000   1.0000000   1.0000000
 Leave Link  101 at Tue Jun  8 16:11:54 2021, MaxMem=    33554432 cpu:         0.1
 (Enter /opt/app/gaussian09/e01/g09/l103.exe)

 GradGradGradGradGradGradGradGradGradGradGradGradGradGradGradGradGradGrad
 Berny optimization.
 Initialization pass.
                           ----------------------------
                           !    Initial Parameters    !
                           ! (Angstroms and Degrees)  !
 --------------------------                            --------------------------
 ! Name  Definition              Value          Derivative Info.                !
 --------------------------------------------------------------------------------
 ! R1    R(1,2)                  1.07           estimate D2E/DX2                !
 ! R2    R(1,3)                  1.3552         estimate D2E/DX2                !
 ! R3    R(1,7)                  1.54           estimate D2E/DX2                !
 ! R4    R(3,4)                  1.07           estimate D2E/DX2                !
 ! R5    R(3,5)                  1.54           estimate D2E/DX2                !
 ! R6    R(5,6)                  1.07           estimate D2E/DX2                !
 ! R7    R(5,12)                 1.3552         estimate D2E/DX2                !
 ! R8    R(7,8)                  1.07           estimate D2E/DX2                !
 ! R9    R(7,9)                  1.3552         estimate D2E/DX2                !
 ! R10   R(9,10)                 1.07           estimate D2E/DX2                !
 ! R11   R(9,11)                 1.47           estimate D2E/DX2                !
 ! R12   R(11,37)                1.47           estimate D2E/DX2                !
 ! R13   R(11,41)                1.47           estimate D2E/DX2                !
 ! R14   R(12,13)                1.07           estimate D2E/DX2                !
 ! R15   R(12,14)                1.54           estimate D2E/DX2                !
 ! R16   R(14,15)                1.07           estimate D2E/DX2                !
 ! R17   R(14,16)                1.3552         estimate D2E/DX2                !
 ! R18   R(16,17)                1.07           estimate D2E/DX2                !
 ! R19   R(16,18)                1.54           estimate D2E/DX2                !
 ! R20   R(18,19)                1.07           estimate D2E/DX2                !
 ! R21   R(18,20)                1.3552         estimate D2E/DX2                !
 ! R22   R(20,21)                1.07           estimate D2E/DX2                !
 ! R23   R(20,22)                1.54           estimate D2E/DX2                !
 ! R24   R(22,23)                1.07           estimate D2E/DX2                !
 ! R25   R(22,24)                1.3552         estimate D2E/DX2                !
 ! R26   R(24,25)                1.07           estimate D2E/DX2                !
 ! R27   R(24,27)                1.54           estimate D2E/DX2                !
 ! R28   R(26,27)                1.2936         estimate D2E/DX2                !
 ! R29   R(26,29)                1.47           estimate D2E/DX2                !
 ! R30   R(26,33)                1.47           estimate D2E/DX2                !
 ! R31   R(27,28)                1.07           estimate D2E/DX2                !
 ! R32   R(29,30)                1.07           estimate D2E/DX2                !
 ! R33   R(29,31)                1.07           estimate D2E/DX2                !
 ! R34   R(29,32)                1.07           estimate D2E/DX2                !
 ! R35   R(33,34)                1.07           estimate D2E/DX2                !
 ! R36   R(33,35)                1.07           estimate D2E/DX2                !
 ! R37   R(33,36)                1.07           estimate D2E/DX2                !
 ! R38   R(37,38)                1.07           estimate D2E/DX2                !
 ! R39   R(37,39)                1.07           estimate D2E/DX2                !
 ! R40   R(37,40)                1.07           estimate D2E/DX2                !
 ! R41   R(41,42)                1.07           estimate D2E/DX2                !
 ! R42   R(41,43)                1.07           estimate D2E/DX2                !
 ! R43   R(41,44)                1.07           estimate D2E/DX2                !
 ! A1    A(2,1,3)              120.0021         estimate D2E/DX2                !
 ! A2    A(2,1,7)              119.9993         estimate D2E/DX2                !
 ! A3    A(3,1,7)              119.9986         estimate D2E/DX2                !
 ! A4    A(1,3,4)              119.9978         estimate D2E/DX2                !
 ! A5    A(1,3,5)              120.0007         estimate D2E/DX2                !
 ! A6    A(4,3,5)              120.0015         estimate D2E/DX2                !
 ! A7    A(3,5,6)              119.9982         estimate D2E/DX2                !
 ! A8    A(3,5,12)             120.0021         estimate D2E/DX2                !
 ! A9    A(6,5,12)             119.9998         estimate D2E/DX2                !
 ! A10   A(1,7,8)              120.0006         estimate D2E/DX2                !
 ! A11   A(1,7,9)              119.9996         estimate D2E/DX2                !
 ! A12   A(8,7,9)              119.9998         estimate D2E/DX2                !
 ! A13   A(7,9,10)             119.9999         estimate D2E/DX2                !
 ! A14   A(7,9,11)             119.9983         estimate D2E/DX2                !
 ! A15   A(10,9,11)            120.0018         estimate D2E/DX2                !
 ! A16   A(9,11,37)            109.4685         estimate D2E/DX2                !
 ! A17   A(9,11,41)            109.4722         estimate D2E/DX2                !
 ! A18   A(37,11,41)           109.4722         estimate D2E/DX2                !
 ! A19   A(5,12,13)            120.0            estimate D2E/DX2                !
 ! A20   A(5,12,14)            119.9977         estimate D2E/DX2                !
 ! A21   A(13,12,14)           120.0023         estimate D2E/DX2                !
 ! A22   A(12,14,15)           119.9988         estimate D2E/DX2                !
 ! A23   A(12,14,16)           120.0028         estimate D2E/DX2                !
 ! A24   A(15,14,16)           119.9984         estimate D2E/DX2                !
 ! A25   A(14,16,17)           120.0017         estimate D2E/DX2                !
 ! A26   A(14,16,18)           119.998          estimate D2E/DX2                !
 ! A27   A(17,16,18)           120.0004         estimate D2E/DX2                !
 ! A28   A(16,18,19)           119.9963         estimate D2E/DX2                !
 ! A29   A(16,18,20)           120.005          estimate D2E/DX2                !
 ! A30   A(19,18,20)           119.9987         estimate D2E/DX2                !
 ! A31   A(18,20,21)           120.0019         estimate D2E/DX2                !
 ! A32   A(18,20,22)           119.9943         estimate D2E/DX2                !
 ! A33   A(21,20,22)           120.0039         estimate D2E/DX2                !
 ! A34   A(20,22,23)           119.9982         estimate D2E/DX2                !
 ! A35   A(20,22,24)           120.003          estimate D2E/DX2                !
 ! A36   A(23,22,24)           119.9988         estimate D2E/DX2                !
 ! A37   A(22,24,25)           120.0            estimate D2E/DX2                !
 ! A38   A(22,24,27)           119.9949         estimate D2E/DX2                !
 ! A39   A(25,24,27)           120.0051         estimate D2E/DX2                !
 ! A40   A(27,26,29)           119.9997         estimate D2E/DX2                !
 ! A41   A(27,26,33)           120.0023         estimate D2E/DX2                !
 ! A42   A(29,26,33)           119.998          estimate D2E/DX2                !
 ! A43   A(24,27,26)           120.0052         estimate D2E/DX2                !
 ! A44   A(24,27,28)           119.9975         estimate D2E/DX2                !
 ! A45   A(26,27,28)           119.9973         estimate D2E/DX2                !
 ! A46   A(26,29,30)           109.4712         estimate D2E/DX2                !
 ! A47   A(26,29,31)           109.4712         estimate D2E/DX2                !
 ! A48   A(26,29,32)           109.4712         estimate D2E/DX2                !
 ! A49   A(30,29,31)           109.4713         estimate D2E/DX2                !
 ! A50   A(30,29,32)           109.4712         estimate D2E/DX2                !
 ! A51   A(31,29,32)           109.4712         estimate D2E/DX2                !
 ! A52   A(26,33,34)           109.4712         estimate D2E/DX2                !
 ! A53   A(26,33,35)           109.4712         estimate D2E/DX2                !
 ! A54   A(26,33,36)           109.4712         estimate D2E/DX2                !
 ! A55   A(34,33,35)           109.4713         estimate D2E/DX2                !
 ! A56   A(34,33,36)           109.4712         estimate D2E/DX2                !
 ! A57   A(35,33,36)           109.4712         estimate D2E/DX2                !
 ! A58   A(11,37,38)           109.4712         estimate D2E/DX2                !
 ! A59   A(11,37,39)           109.4712         estimate D2E/DX2                !
 ! A60   A(11,37,40)           109.4712         estimate D2E/DX2                !
 ! A61   A(38,37,39)           109.4713         estimate D2E/DX2                !
 ! A62   A(38,37,40)           109.4712         estimate D2E/DX2                !
 ! A63   A(39,37,40)           109.4712         estimate D2E/DX2                !
 ! A64   A(11,41,42)           109.4712         estimate D2E/DX2                !
 ! A65   A(11,41,43)           109.4712         estimate D2E/DX2                !
 ! A66   A(11,41,44)           109.4712         estimate D2E/DX2                !
 ! A67   A(42,41,43)           109.4713         estimate D2E/DX2                !
 ! A68   A(42,41,44)           109.4712         estimate D2E/DX2                !
 ! A69   A(43,41,44)           109.4712         estimate D2E/DX2                !
 ! D1    D(2,1,3,4)            179.9961         estimate D2E/DX2                !
 ! D2    D(2,1,3,5)             -0.0047         estimate D2E/DX2                !
 ! D3    D(7,1,3,4)             -0.004          estimate D2E/DX2                !
 ! D4    D(7,1,3,5)            179.9952         estimate D2E/DX2                !
 ! D5    D(2,1,7,8)            179.9929         estimate D2E/DX2                !
 ! D6    D(2,1,7,9)             -0.0083         estimate D2E/DX2                !
 ! D7    D(3,1,7,8)             -0.007          estimate D2E/DX2                !
 ! D8    D(3,1,7,9)            179.9917         estimate D2E/DX2                !
 ! D9    D(1,3,5,6)             -0.0062         estimate D2E/DX2                !
 ! D10   D(1,3,5,12)           179.995          estimate D2E/DX2                !
 ! D11   D(4,3,5,6)            179.993          estimate D2E/DX2                !
 ! D12   D(4,3,5,12)            -0.0058         estimate D2E/DX2                !
 ! D13   D(3,5,12,13)           -0.0118         estimate D2E/DX2                !
 ! D14   D(3,5,12,14)          179.9865         estimate D2E/DX2                !
 ! D15   D(6,5,12,13)          179.9893         estimate D2E/DX2                !
 ! D16   D(6,5,12,14)           -0.0124         estimate D2E/DX2                !
 ! D17   D(1,7,9,10)            -0.0065         estimate D2E/DX2                !
 ! D18   D(1,7,9,11)           179.9941         estimate D2E/DX2                !
 ! D19   D(8,7,9,10)           179.9922         estimate D2E/DX2                !
 ! D20   D(8,7,9,11)            -0.0072         estimate D2E/DX2                !
 ! D21   D(7,9,11,37)         -150.0039         estimate D2E/DX2                !
 ! D22   D(7,9,11,41)          -30.0038         estimate D2E/DX2                !
 ! D23   D(10,9,11,37)          29.9967         estimate D2E/DX2                !
 ! D24   D(10,9,11,41)         149.9968         estimate D2E/DX2                !
 ! D25   D(9,11,37,38)        -179.9439         estimate D2E/DX2                !
 ! D26   D(9,11,37,39)         -59.9439         estimate D2E/DX2                !
 ! D27   D(9,11,37,40)          60.0561         estimate D2E/DX2                !
 ! D28   D(41,11,37,38)         60.056          estimate D2E/DX2                !
 ! D29   D(41,11,37,39)       -179.944          estimate D2E/DX2                !
 ! D30   D(41,11,37,40)        -59.944          estimate D2E/DX2                !
 ! D31   D(9,11,41,42)         -47.3282         estimate D2E/DX2                !
 ! D32   D(9,11,41,43)          72.6718         estimate D2E/DX2                !
 ! D33   D(9,11,41,44)        -167.3282         estimate D2E/DX2                !
 ! D34   D(37,11,41,42)         72.6696         estimate D2E/DX2                !
 ! D35   D(37,11,41,43)       -167.3304         estimate D2E/DX2                !
 ! D36   D(37,11,41,44)        -47.3304         estimate D2E/DX2                !
 ! D37   D(5,12,14,15)          -0.0103         estimate D2E/DX2                !
 ! D38   D(5,12,14,16)         179.9867         estimate D2E/DX2                !
 ! D39   D(13,12,14,15)        179.988          estimate D2E/DX2                !
 ! D40   D(13,12,14,16)         -0.015          estimate D2E/DX2                !
 ! D41   D(12,14,16,17)         -0.0027         estimate D2E/DX2                !
 ! D42   D(12,14,16,18)        179.9998         estimate D2E/DX2                !
 ! D43   D(15,14,16,17)        179.9942         estimate D2E/DX2                !
 ! D44   D(15,14,16,18)         -0.0032         estimate D2E/DX2                !
 ! D45   D(14,16,18,19)         -0.0213         estimate D2E/DX2                !
 ! D46   D(14,16,18,20)        179.9772         estimate D2E/DX2                !
 ! D47   D(17,16,18,19)        179.9812         estimate D2E/DX2                !
 ! D48   D(17,16,18,20)         -0.0202         estimate D2E/DX2                !
 ! D49   D(16,18,20,21)          0.0095         estimate D2E/DX2                !
 ! D50   D(16,18,20,22)       -179.9879         estimate D2E/DX2                !
 ! D51   D(19,18,20,21)       -179.992          estimate D2E/DX2                !
 ! D52   D(19,18,20,22)          0.0107         estimate D2E/DX2                !
 ! D53   D(18,20,22,23)         -0.0276         estimate D2E/DX2                !
 ! D54   D(18,20,22,24)        179.9686         estimate D2E/DX2                !
 ! D55   D(21,20,22,23)        179.9751         estimate D2E/DX2                !
 ! D56   D(21,20,22,24)         -0.0288         estimate D2E/DX2                !
 ! D57   D(20,22,24,25)          0.0149         estimate D2E/DX2                !
 ! D58   D(20,22,24,27)       -179.984          estimate D2E/DX2                !
 ! D59   D(23,22,24,25)       -179.9889         estimate D2E/DX2                !
 ! D60   D(23,22,24,27)          0.0122         estimate D2E/DX2                !
 ! D61   D(22,24,27,26)        179.9663         estimate D2E/DX2                !
 ! D62   D(22,24,27,28)         -0.0321         estimate D2E/DX2                !
 ! D63   D(25,24,27,26)         -0.0326         estimate D2E/DX2                !
 ! D64   D(25,24,27,28)        179.9691         estimate D2E/DX2                !
 ! D65   D(29,26,27,24)       -179.9867         estimate D2E/DX2                !
 ! D66   D(29,26,27,28)          0.0117         estimate D2E/DX2                !
 ! D67   D(33,26,27,24)          0.0107         estimate D2E/DX2                !
 ! D68   D(33,26,27,28)       -179.9909         estimate D2E/DX2                !
 ! D69   D(27,26,29,30)        119.9971         estimate D2E/DX2                !
 ! D70   D(27,26,29,31)       -120.0029         estimate D2E/DX2                !
 ! D71   D(27,26,29,32)         -0.0029         estimate D2E/DX2                !
 ! D72   D(33,26,29,30)        -60.0002         estimate D2E/DX2                !
 ! D73   D(33,26,29,31)         59.9998         estimate D2E/DX2                !
 ! D74   D(33,26,29,32)        179.9998         estimate D2E/DX2                !
 ! D75   D(27,26,33,34)        -59.9503         estimate D2E/DX2                !
 ! D76   D(27,26,33,35)         60.0498         estimate D2E/DX2                !
 ! D77   D(27,26,33,36)       -179.9502         estimate D2E/DX2                !
 ! D78   D(29,26,33,34)        120.0471         estimate D2E/DX2                !
 ! D79   D(29,26,33,35)       -119.9529         estimate D2E/DX2                !
 ! D80   D(29,26,33,36)          0.0471         estimate D2E/DX2                !
 --------------------------------------------------------------------------------
 Trust Radius=3.00D-01 FncErr=1.00D-07 GrdErr=1.00D-06
 Number of steps in this run=    202 maximum allowed number of steps=    264.
 GradGradGradGradGradGradGradGradGradGradGradGradGradGradGradGradGradGrad

 Leave Link  103 at Tue Jun  8 16:11:54 2021, MaxMem=    33554432 cpu:         0.0
 (Enter /opt/app/gaussian09/e01/g09/l202.exe)
                          Input orientation:                          
 ---------------------------------------------------------------------
 Center     Atomic      Atomic             Coordinates (Angstroms)
 Number     Number       Type             X           Y           Z
 ---------------------------------------------------------------------
      1          6           0       -2.550735    0.195723    0.018743
      2          1           0       -3.579240    0.280750    0.301290
      3          6           0       -1.835309    1.307812   -0.277888
      4          1           0       -0.806769    1.222709   -0.560372
      5          6           0       -2.502618    2.693970   -0.208428
      6          1           0       -3.531166    2.779000    0.073947
      7          6           0       -1.883404   -1.190425   -0.050840
      8          1           0       -0.854915   -1.275487   -0.333498
      9          6           0       -2.598769   -2.302521    0.245951
     10          1           0       -3.627236   -2.217450    0.528733
     11          7           0       -1.961777   -3.625659    0.179395
     12          6           0       -1.787190    3.806088   -0.504955
     13          1           0       -0.758594    3.721076   -0.787165
     14          6           0       -2.454698    5.192195   -0.435762
     15          1           0       -3.483326    5.277124   -0.153738
     16          6           0       -1.739293    6.304402   -0.732006
     17          1           0       -0.710586    6.219537   -1.013960
     18          6           0       -2.406903    7.690430   -0.662783
     19          1           0       -3.435704    7.775195   -0.381109
     20          6           0       -1.691496    8.802786   -0.958554
     21          1           0       -0.662748    8.718071   -1.240351
     22          6           0       -2.359289   10.188740   -0.888978
     23          1           0       -3.388144   10.273317   -0.607559
     24          6           0       -1.643883   11.301253   -1.184092
     25          1           0       -0.615064   11.216683   -1.465687
     26          7           0       -1.628885   13.749202   -1.395118
     27          6           0       -2.311743   12.687103   -1.114100
     28          1           0       -3.340738   12.771494   -0.832962
     29          6           0       -2.266440   15.072045   -1.327983
     30          1           0       -1.752357   15.679871   -0.613024
     31          1           0       -2.222368   15.538450   -2.289973
     32          1           0       -3.288667   14.960701   -1.032086
     33          6           0       -0.215322   13.633378   -1.781545
     34          1           0        0.335098   13.174066   -0.987209
     35          1           0       -0.134841   13.034070   -2.664298
     36          1           0        0.182695   14.607692   -1.974406
     37          6           0       -2.968799   -4.637076   -0.172520
     38          1           0       -2.505374   -5.600341   -0.220020
     39          1           0       -3.738418   -4.647802    0.570763
     40          1           0       -3.395606   -4.399284   -1.124461
     41          6           0       -0.905129   -3.609973   -0.842441
     42          1           0       -1.281863   -3.162165   -1.738231
     43          1           0       -0.070899   -3.043741   -0.484193
     44          1           0       -0.593501   -4.612595   -1.048684
 ---------------------------------------------------------------------
                    Distance matrix (angstroms):
                    1          2          3          4          5
     1  C    0.000000
     2  H    1.069992   0.000000
     3  C    1.355200   2.105136   0.000000
     4  H    2.105111   3.052268   1.070016   0.000000
     5  C    2.509015   2.691199   1.539987   2.272527   0.000000
     6  H    2.763623   2.509033   2.272468   3.201053   1.069988
     7  C    1.539993   2.272490   2.508994   2.691093   3.936595
     8  H    2.272518   3.201058   2.763639   2.508938   4.299669
     9  C    2.509015   2.763635   3.727169   4.035922   5.018030
    10  H    2.691161   2.508992   4.035977   4.579943   5.092172
    11  N    3.869838   4.229785   4.956233   5.038648   6.354575
    12  C    3.727197   4.036022   2.509035   2.763719   1.355202
    13  H    4.036009   4.580024   2.691193   2.509102   2.105114
    14  C    5.018020   5.092163   3.936622   4.299769   2.509005
    15  H    5.169150   5.017968   4.299629   4.875202   2.763596
    16  C    6.207900   6.382592   5.018102   5.169397   3.727200
    17  H    6.382708   6.725195   5.092332   5.018295   4.036073
    18  C    7.527004   7.563541   6.419710   6.663507   5.017989
    19  H    7.641429   7.526816   6.663254   7.062471   5.169073
    20  C    8.704880   8.819063   7.527192   7.641915   6.207918
    21  H    8.819310   9.059302   7.563939   7.527520   6.382772
    22  C   10.035985  10.053520   8.917335   9.105384   7.526970
    23  H   10.131703  10.035632   9.104958   9.411654   7.641333
    24  C   11.207229  11.287313  10.036269  10.132464   8.704864
    25  H   11.287688  11.467483  10.054133  10.036725   8.819308
    26  N   13.658169  13.714258  12.493157  12.581164  11.153017
    27  C   12.544920  12.550994  11.419917  11.576005  10.035905
    28  H   12.629312  12.544405  11.575423  11.826654  10.131583
    29  C   14.939861  14.938553  13.810963  13.947185  12.430846
    30  H   15.517582  15.534039  14.376205  14.488148  13.013847
    31  H   15.518932  15.535544  14.377390  14.489164  13.015070
    32  H   14.820707  14.743245  13.750725  13.968348  12.319455
    33  C   13.757389  13.926479  12.522177  12.484622  11.286145
    34  H   13.333318  13.535873  12.083947  12.013367  10.885382
    35  H   13.336356  13.539045  12.086838  12.016082  10.888312
    36  H   14.803686  14.986400  13.558662  13.495788  12.339625
    37  C    4.854617   4.978167   6.052899   6.257945   7.345940
    38  H    5.801158   6.001016   6.940816   7.039539   8.294320
    39  H    5.017475   4.938480   6.309626   6.658599   7.485717
    40  H    4.809866   4.895836   5.976801   6.215069   7.207690
    41  C    4.234735   4.857645   5.036722   4.841906   6.534037
    42  H    3.996549   4.614244   4.734934   4.565105   6.174533
    43  H    4.110555   4.896701   4.700183   4.330116   6.237838
    44  H    5.300009   5.889134   6.098150   5.859583   7.598464
                    6          7          8          9         10
     6  H    0.000000
     7  C    4.299654   0.000000
     8  H    4.875161   1.070010   0.000000
     9  C    5.169217   1.355208   2.105134   0.000000
    10  H    5.018025   2.105145   3.052295   1.070022   0.000000
    11  N    6.594980   2.447349   2.647926   1.469994   2.208810
    12  C    2.105110   5.018029   5.169230   6.207868   6.382577
    13  H    3.052241   5.092172   5.018041   6.382578   6.725087
    14  C    2.691114   6.419687   6.663383   7.527035   7.563593
    15  H    2.508935   6.663297   7.062405   7.641545   7.526960
    16  C    4.035942   7.527097   7.641704   8.704839   8.819056
    17  H    4.580012   7.563772   7.527233   8.819189   9.059222
    18  C    5.092041   8.917293   9.105205  10.036019  10.053607
    19  H    5.017783   9.105001   9.411566  10.131832  10.035808
    20  C    6.382511  10.036187  10.132233  11.207222  11.287370
    21  H    6.725159  10.054015  10.036459  11.287636  11.467496
    22  C    7.563383  11.419910  11.575845  12.545000  12.551141
    23  H    7.526599  11.575472  11.826548  12.629462  12.544624
    24  C    8.818917  12.545264  12.630137  13.712020  13.770359
    25  H    9.059173  12.551765  12.545664  13.770754  13.911392
    26  N   11.230412  15.002143  15.082020  16.164516  16.205819
    27  C   10.053305  13.924790  14.060071  15.053935  15.052413
    28  H   10.035372  14.059542  14.273978  15.130780  15.053396
    29  C   12.437198  16.317039  16.438467  17.448876  17.442070
    30  H   13.041033  16.880169  16.981392  18.022782  18.031441
    31  H   13.042417  16.881465  16.982526  18.024229  18.033046
    32  H   12.234212  16.241812  16.432436  17.324208  17.252236
    33  C   11.500226  15.017422  14.992670  16.240211  16.377646
    34  H   11.141429  14.564928  14.513202  15.800412  15.965492
    35  H   11.144481  14.567906  14.516010  15.803528  15.968755
    36  H   12.566084  16.048345  16.001393  17.280678  17.431772
    37  C    7.441450   3.615562   3.974254   2.400455   2.603821
    38  H    8.447013   4.456774   4.630471   3.331887   3.641862
    39  H    7.446286   3.972521   4.528222   2.627669   2.433257
    40  H    7.278895   3.706237   4.103516   2.628572   2.747199
    41  C    6.968128   2.727245   2.389847   2.400509   3.350986
    42  H    6.606117   2.664000   2.390630   2.531839   3.395937
    43  H    6.796269   2.628260   1.940132   2.733614   3.788972
    44  H    8.032799   3.790883   3.422882   3.321690   4.174747
                   11         12         13         14         15
    11  N    0.000000
    12  C    7.465232   0.000000
    13  H    7.507091   1.069990   0.000000
    14  C    8.853019   1.540015   2.272541   0.000000
    15  H    9.038011   2.272483   3.201044   1.069966   0.000000
    16  C    9.974280   2.509067   2.763763   1.355200   2.105076
    17  H    9.995872   2.691263   2.509193   2.105153   3.052247
    18  C   11.356112   3.936631   4.299786   2.508984   2.691070
    19  H   11.509391   4.299621   4.875210   2.763557   2.508849
    20  C   12.483358   5.018157   5.169473   3.727219   4.035924
    21  H   12.492831   5.092421   5.018418   4.036118   4.580012
    22  C   13.861351   6.419737   6.663578   5.017965   5.091955
    23  H   13.994119   6.663230   7.062482   5.169008   5.017665
    24  C   14.992426   7.527234   7.642013   6.207899   6.382422
    25  H   14.993834   7.563980   7.527623   6.382747   6.725065
    26  N   17.449232   9.984135  10.084161   8.650127   8.761055
    27  C   16.367706   8.917322   9.105426   7.526900   7.563246
    28  H   16.486147   9.104922   9.411675   7.641244   7.526437
    29  C   18.760841  11.306142  11.463446   9.921842   9.939826
    30  H   19.322921  11.874326  12.001277  10.512661  10.555773
    31  H   19.324305  11.875352  12.002141  10.513661  10.556909
    32  H   18.673005  11.267550  11.523472   9.822160   9.725279
    33  C   17.457656  10.033747   9.976856   8.836261   9.119024
    34  H   16.996099   9.617468   9.518151   8.473330   8.811171
    35  H   16.999143   9.620222   9.520743   8.476032   8.813936
    36  H   18.484932  11.077652  10.991541   9.898225  10.188917
    37  C    1.470000   8.531924   8.667266   9.846225   9.927560
    38  H    2.086720   9.438108   9.500617  10.794811  10.921540
    39  H    2.086720   8.742581   8.986737   9.974296   9.954604
    40  H    2.086720   8.384445   8.544463   9.662095   9.725372
    41  C    1.470000   7.475954   7.332722   8.946771   9.279111
    42  H    2.086720   7.094566   6.968310   8.536234   8.864460
    43  H    2.086720   7.061603   6.806428   8.574117   8.999481
    44  H    2.086720   8.520256   8.339408   9.998682  10.342078
                   16         17         18         19         20
    16  C    0.000000
    17  H    1.070018   0.000000
    18  C    1.539989   2.272519   0.000000
    19  H    2.272480   3.201068   1.070026   0.000000
    20  C    2.509090   2.763771   1.355221   2.105148   0.000000
    21  H    2.691312   2.509225   2.105162   3.052310   1.070004
    22  C    3.936638   4.299816   2.508981   2.691059   1.540018
    23  H    4.299591   4.875204   2.763547   2.508816   2.272504
    24  C    5.018167   5.169509   3.727198   4.035900   2.509077
    25  H    5.092414   5.018431   4.036063   4.579974   2.691243
    26  N    7.475089   7.595025   6.152263   6.323098   4.966038
    27  C    6.419701   6.663568   5.017916   5.091896   3.936600
    28  H    6.663190   7.062478   5.168967   5.017589   4.299583
    29  C    8.803672   8.993675   7.412858   7.450354   6.306397
    30  H    9.376233   9.525962   8.016363   8.085255   6.886028
    31  H    9.377007   9.526586   8.017058   8.086042   6.886485
    32  H    8.798984   9.113439   7.332853   7.216432   6.362097
    33  C    7.558962   7.469907   6.432207   6.830109   5.117716
    34  H    7.180565   7.032755   6.139551   6.613178   4.818298
    35  H    7.183067   7.035123   6.141890   6.615468   4.820425
    36  H    8.612910   8.490085   7.501659   7.893948   6.183969
    37  C   11.024547  11.120863  12.350040  12.422800  13.523285
    38  H   11.940348  11.981700  13.298509  13.408819  14.444996
    39  H   11.209125  11.392023  12.471028  12.463088  13.691130
    40  H   10.838186  10.953579  12.138857  12.197217  13.312632
    41  C    9.950018   9.832931  11.401171  11.672132  12.438185
    42  H    9.530877   9.426943  10.963627  11.229721  11.997322
    43  H    9.499091   9.300439  10.986866  11.330574  11.966267
    44  H   10.981528  10.832821  12.441936  12.727180  13.460541
                   21         22         23         24         25
    21  H    0.000000
    22  C    2.272572   0.000000
    23  H    3.201094   1.069996   0.000000
    24  C    2.763806   1.355206   2.105110   0.000000
    25  H    2.509205   2.105133   3.052261   1.070008   0.000000
    26  N    5.125393   3.669680   3.974546   2.457074   2.728821
    27  C    4.299807   2.508935   2.691019   1.539973   2.272547
    28  H    4.875227   2.763512   2.508773   2.272492   3.201106
    29  C    6.553816   4.903878   4.980464   3.824547   4.196407
    30  H    7.074422   5.531459   5.648597   4.417033   4.684071
    31  H    7.074722   5.531811   5.648998   4.417178   4.684074
    32  H    6.775637   4.863726   4.707620   4.014970   4.621021
    33  C    4.965212   4.154372   4.768129   2.799383   2.469813
    34  H    4.573365   4.022629   4.735083   2.731768   2.227801
    35  H    4.575386   4.024405   4.736656   2.733290   2.229389
    36  H    5.995102   5.212195   5.779789   3.859213   3.520533
    37  C   13.594781  14.855626  14.922631  16.025261  16.079614
    38  H   14.472500  15.803922  15.902909  16.950973  16.968714
    39  H   13.834249  14.971835  14.971672  16.181439  16.296759
    40  H   13.399512  14.626683  14.681705  15.798067  15.865253
    41  C   12.336845  13.875202  14.105541  14.933423  14.842584
    42  H   11.906770  13.421205  13.646502  14.478555  14.396880
    43  H   11.800943  13.434996  13.724554  14.447940  14.304514
    44  H   13.332224  14.907147  15.152393  15.949050  15.834784
                   26         27         28         29         30
    26  N    0.000000
    27  C    1.293569   0.000000
    28  H    2.049969   1.070043   0.000000
    29  C    1.470000   2.394942   2.586831   0.000000
    30  H    2.086720   3.085555   3.321141   1.070000   0.000000
    31  H    2.086720   3.085587   3.321096   1.070000   1.747303
    32  H    2.086720   2.475956   2.198861   1.070000   1.747303
    33  C    1.470000   2.394974   3.377999   2.546089   2.813548
    34  H    2.086720   2.694253   3.701031   3.238280   3.282764
    35  H    2.086720   2.694884   3.701421   3.237715   3.718111
    36  H    2.086720   3.263588   4.133896   2.575219   2.597567
    37  C   18.475533  17.362185  17.425063  19.755451  20.358096
    38  H   19.404997  18.310311  18.401029  20.703435  21.297157
    39  H   18.621616  17.474928  17.480289  19.865658  20.458741
    40  H   18.236285  17.120732  17.173340  19.505104  20.152773
    41  C   17.383044  16.359922  16.561544  18.737842  19.309803
    42  H   16.918406  15.894951  16.091611  18.265380  18.881466
    43  H   16.889642  15.902126  16.153487  18.267843  18.799402
    44  H   18.394228  17.384941  17.601148  19.757576  20.330197
                   31         32         33         34         35
    31  H    0.000000
    32  H    1.747303   0.000000
    33  C    2.813544   3.430587   0.000000
    34  H    3.718621   4.040514   1.070000   0.000000
    35  H    3.281739   4.040129   1.070000   1.747303   0.000000
    36  H    2.598119   3.614268   1.070000   1.747303   1.747303
    37  C   20.300064  19.619226  18.546700  18.133290  18.069578
    38  H   21.241782  20.591976  19.432413  19.003558  18.942946
    39  H   20.444241  19.679045  18.765583  18.347747  18.333030
    40  H   20.006202  19.360500  18.322742  17.965512  17.802402
    41  C   19.248183  18.723972  17.282676  16.830421  16.761165
    42  H   18.732377  18.247305  16.829428  16.433229  16.263187
    43  H   18.793283  18.297927  16.728128  16.230684  16.225071
    44  H   20.254842  19.757989  18.264601  17.810991  17.726403
                   36         37         38         39         40
    36  H    0.000000
    37  C   19.584172   0.000000
    38  H   20.461383   1.070000   0.000000
    39  H   19.814820   1.070000   1.747303   0.000000
    40  H   19.359539   1.070000   1.747303   1.747303   0.000000
    41  C   18.285185   2.400514   2.628642   3.331931   2.627741
    42  H   17.831671   2.733599   3.121962   3.684188   2.524894
    43  H   17.716041   3.321698   3.540150   4.139643   3.647070
    44  H   19.258216   2.531857   2.305989   3.537563   2.811235
                   41         42         43         44
    41  C    0.000000
    42  H    1.070000   0.000000
    43  H    1.070000   1.747303   0.000000
    44  H    1.070000   1.747303   1.747303   0.000000
 Stoichiometry    C17H25N2(1+)
 Framework group  C1[X(C17H25N2)]
 Deg. of freedom   126
 Full point group                 C1      NOp   1
 Largest Abelian subgroup         C1      NOp   1
 Largest concise Abelian subgroup C1      NOp   1
                         Standard orientation:                         
 ---------------------------------------------------------------------
 Center     Atomic      Atomic             Coordinates (Angstroms)
 Number     Number       Type             X           Y           Z
 ---------------------------------------------------------------------
      1          6           0       -4.975713   -0.528038   -0.162983
      2          1           0       -4.940361   -1.595317   -0.095543
      3          6           0       -3.825373    0.188081   -0.184356
      4          1           0       -3.860804    1.255378   -0.251863
      5          6           0       -2.467234   -0.534211   -0.111468
      6          1           0       -2.431868   -1.601475   -0.043852
      7          6           0       -6.333833    0.194315   -0.235762
      8          1           0       -6.369212    1.261619   -0.303091
      9          6           0       -7.484190   -0.521798   -0.214561
     10          1           0       -7.448810   -1.589121   -0.147357
     11          7           0       -8.780564    0.167759   -0.283902
     12          6           0       -1.316872    0.181874   -0.132941
     13          1           0       -1.352231    1.249130   -0.200730
     14          6           0        0.041229   -0.540516   -0.059734
     15          1           0        0.076518   -1.607737    0.008246
     16          6           0        1.191659    0.175450   -0.081471
     17          1           0        1.156431    1.242720   -0.149546
     18          6           0        2.549677   -0.547041   -0.008254
     19          1           0        2.584822   -1.614302    0.060123
     20          6           0        3.700221    0.168765   -0.030446
     21          1           0        3.665132    1.236014   -0.098691
     22          6           0        5.058134   -0.554012    0.042504
     23          1           0        5.093110   -1.621231    0.111149
     24          6           0        6.208787    0.161571    0.019683
     25          1           0        6.173831    1.228814   -0.048784
     26          7           0        8.665020    0.121399    0.069844
     27          6           0        7.566565   -0.561399    0.092269
     28          1           0        7.601371   -1.628650    0.161236
     29          6           0        9.961043   -0.568864    0.138843
     30          1           0       10.530093   -0.347836   -0.739922
     31          1           0       10.496571   -0.236502    1.003508
     32          1           0        9.799829   -1.624692    0.203168
     33          6           0        8.617329    1.587581   -0.024697
     34          1           0        8.117751    1.870708   -0.927560
     35          1           0        8.085661    1.982084    0.815895
     36          1           0        9.613862    1.977169   -0.031243
     37          6           0       -9.792073   -0.616775    0.438770
     38          1           0      -10.735931   -0.115376    0.387493
     39          1           0       -9.878048   -1.585407   -0.007616
     40          1           0       -9.498507   -0.720598    1.462459
     41          6           0       -8.661471    1.498033    0.330174
     42          1           0       -8.161147    1.412551    1.272123
     43          1           0       -8.099153    2.139836   -0.315416
     44          1           0       -9.637428    1.910006    0.480796
 ---------------------------------------------------------------------
 Rotational constants (GHZ):      3.0883132      0.0456076      0.0450663
 Leave Link  202 at Tue Jun  8 16:11:55 2021, MaxMem=    33554432 cpu:         0.0
 (Enter /opt/app/gaussian09/e01/g09/l301.exe)
 Standard basis: 6-31G(d,p) (6D, 7F)
 Ernie: Thresh=  0.10000D-02 Tol=  0.10000D-05 Strict=F.
 There are   410 symmetry adapted cartesian basis functions of A   symmetry.
 There are   410 symmetry adapted basis functions of A   symmetry.
   410 basis functions,   707 primitive gaussians,   410 cartesian basis functions
    70 alpha electrons       70 beta electrons
       nuclear repulsion energy      1116.7970639292 Hartrees.
 IExCor=  402 DFT=T Ex+Corr=B3LYP ExCW=0 ScaHFX=  0.200000
 ScaDFX=  0.800000  0.720000  1.000000  0.810000 ScalE2=  1.000000  1.000000
 IRadAn=      0 IRanWt=     -1 IRanGd=            0 ICorTp=0 IEmpDi=  4
 NAtoms=   44 NActive=   44 NUniq=   44 SFac= 1.00D+00 NAtFMM=   60 NAOKFM=F Big=F
 Integral buffers will be    131072 words long.
 Raffenetti 2 integral format.
 Two-electron integral symmetry is turned on.
 Leave Link  301 at Tue Jun  8 16:11:56 2021, MaxMem=    33554432 cpu:         0.1
 (Enter /opt/app/gaussian09/e01/g09/l302.exe)
 NPDir=0 NMtPBC=     1 NCelOv=     1 NCel=       1 NClECP=     1 NCelD=      1
         NCelK=      1 NCelE2=     1 NClLst=     1 CellRange=     0.0.
 One-electron integrals computed using PRISM.
 NBasis=   410 RedAO= T EigKep=  1.50D-03  NBF=   410
 NBsUse=   410 1.00D-06 EigRej= -1.00D+00 NBFU=   410
 Precomputing XC quadrature grid using
 IXCGrd= 4 IRadAn=           0 IRanWt=          -1 IRanGd=           0 AccXCQ= 0.00D+00.
 Generated NRdTot=       0 NPtTot=           0 NUsed=           0 NTot=          32
 NSgBfM=   337   337   337   337   337 MxSgAt=    44 MxSgA2=    44.
 Leave Link  302 at Tue Jun  8 16:12:00 2021, MaxMem=    33554432 cpu:         1.3
 (Enter /opt/app/gaussian09/e01/g09/l303.exe)
 DipDrv:  MaxL=1.
 Leave Link  303 at Tue Jun  8 16:12:00 2021, MaxMem=    33554432 cpu:         0.0
 (Enter /opt/app/gaussian09/e01/g09/l401.exe)
 ExpMin= 1.61D-01 ExpMax= 4.17D+03 ExpMxC= 6.27D+02 IAcc=1 IRadAn=         1 AccDes= 0.00D+00
 Harris functional with IExCor=  402 and IRadAn=       1 diagonalized for initial guess.
 HarFok:  IExCor=  402 AccDes= 0.00D+00 IRadAn=         1 IDoV= 1 UseB2=F ITyADJ=14
 ICtDFT=  3500011 ScaDFX=  1.000000  1.000000  1.000000  1.000000
 FoFCou: FMM=F IPFlag=           0 FMFlag=      100000 FMFlg1=           0
         NFxFlg=           0 DoJE=T BraDBF=F KetDBF=T FulRan=T
         wScrn=  0.000000 ICntrl=     500 IOpCl=  0 I1Cent=   200000004 NGrid=           0
         NMat0=    1 NMatS0=      1 NMatT0=    0 NMatD0=    1 NMtDS0=    0 NMtDT0=    0
 Petite list used in FoFCou.
 Harris En= -772.121752741367    
 JPrj=0 DoOrth=F DoCkMO=F.
 Leave Link  401 at Tue Jun  8 16:12:05 2021, MaxMem=    33554432 cpu:         4.7
 (Enter /opt/app/gaussian09/e01/g09/l502.exe)
 Closed shell SCF:
 Using DIIS extrapolation, IDIIS=  1040.
 Integral symmetry usage will be decided dynamically.
 IVT=      528419 IEndB=      528419 NGot=    33554432 MDV=    33211164
 LenX=    33211164 LenY=    33042623
 Requested convergence on RMS density matrix=1.00D-08 within 128 cycles.
 Requested convergence on MAX density matrix=1.00D-06.
 Requested convergence on             energy=1.00D-06.
 No special actions if energy rises.
 Fock matrices will be formed incrementally for  20 cycles.
 Integral accuracy reduced to 1.0D-05 until final iterations.

 Cycle   1  Pass 0  IDiag  1:
 FoFJK:  IHMeth= 1 ICntrl=       0 DoSepK=F KAlg= 0 I1Cent=   0 FoldK=F
 IRaf= 460000000 NMat=   1 IRICut=       1 DoRegI=T DoRafI=F ISym2E= 0.
 FoFCou: FMM=F IPFlag=           0 FMFlag=      100000 FMFlg1=           0
         NFxFlg=           0 DoJE=F BraDBF=F KetDBF=F FulRan=T
         wScrn=  0.000000 ICntrl=       0 IOpCl=  0 I1Cent=           0 NGrid=           0
         NMat0=    1 NMatS0=      1 NMatT0=    0 NMatD0=    1 NMtDS0=    0 NMtDT0=    0
 Symmetry not used in FoFCou.
 E= -771.592082401635    
 DIIS: error= 3.13D-02 at cycle   1 NSaved=   1.
 NSaved= 1 IEnMin= 1 EnMin= -771.592082401635     IErMin= 1 ErrMin= 3.13D-02
 ErrMax= 3.13D-02  0.00D+00 EMaxC= 1.00D-01 BMatC= 4.04D-01 BMatP= 4.04D-01
 IDIUse=3 WtCom= 6.87D-01 WtEn= 3.13D-01
 Coeff-Com:  0.100D+01
 Coeff-En:   0.100D+01
 Coeff:      0.100D+01
 Gap=     0.026 Goal=   None    Shift=    0.000
 GapD=    0.026 DampG=0.250 DampE=0.500 DampFc=0.2500 IDamp=-1.
 Damping current iteration by 2.50D-01
 RMSDP=4.36D-03 MaxDP=2.85D-01              OVMax= 5.49D-01

 Cycle   2  Pass 0  IDiag  1:
 RMSU=  1.07D-03    CP:  9.86D-01
 E= -771.725176924729     Delta-E=       -0.133094523094 Rises=F Damp=T
 DIIS: error= 1.62D-02 at cycle   2 NSaved=   2.
 NSaved= 2 IEnMin= 2 EnMin= -771.725176924729     IErMin= 2 ErrMin= 1.62D-02
 ErrMax= 1.62D-02  0.00D+00 EMaxC= 1.00D-01 BMatC= 1.20D-01 BMatP= 4.04D-01
 IDIUse=3 WtCom= 8.38D-01 WtEn= 1.62D-01
 Coeff-Com: -0.609D+00 0.161D+01
 Coeff-En:   0.000D+00 0.100D+01
 Coeff:     -0.511D+00 0.151D+01
 Gap=     0.005 Goal=   None    Shift=    0.000
 RMSDP=1.89D-03 MaxDP=1.19D-01 DE=-1.33D-01 OVMax= 6.63D-01

 Cycle   3  Pass 0  IDiag  1:
 RMSU=  1.86D-03    CP:  9.65D-01  8.83D-01
 E= -771.775395187242     Delta-E=       -0.050218262513 Rises=F Damp=F
 DIIS: error= 2.39D-02 at cycle   3 NSaved=   3.
 NSaved= 3 IEnMin= 3 EnMin= -771.775395187242     IErMin= 2 ErrMin= 1.62D-02
 ErrMax= 2.39D-02  0.00D+00 EMaxC= 1.00D-01 BMatC= 1.87D-01 BMatP= 1.20D-01
 IDIUse=2 WtCom= 0.00D+00 WtEn= 1.00D+00
 Coeff-En:   0.000D+00 0.429D+00 0.571D+00
 Coeff:      0.000D+00 0.429D+00 0.571D+00
 Gap=     0.316 Goal=   None    Shift=    0.000
 RMSDP=3.57D-03 MaxDP=3.17D-01 DE=-5.02D-02 OVMax= 6.51D-01

 Cycle   4  Pass 0  IDiag  1:
 RMSU=  9.80D-04    CP:  9.57D-01  3.00D+00 -3.07D-01
 E= -770.831436962212     Delta-E=        0.943958225031 Rises=F Damp=F
 DIIS: error= 2.98D-02 at cycle   4 NSaved=   4.
 NSaved= 4 IEnMin= 3 EnMin= -771.775395187242     IErMin= 2 ErrMin= 1.62D-02
 ErrMax= 2.98D-02  0.00D+00 EMaxC= 1.00D-01 BMatC= 5.86D-01 BMatP= 1.20D-01
 IDIUse=2 WtCom= 0.00D+00 WtEn= 1.00D+00
 Coeff-En:   0.000D+00 0.000D+00 0.731D+00 0.269D+00
 Coeff:      0.000D+00 0.000D+00 0.731D+00 0.269D+00
 Gap=     0.040 Goal=   None    Shift=    0.000
 RMSDP=2.96D-03 MaxDP=2.56D-01 DE= 9.44D-01 OVMax= 9.36D-01

 Cycle   5  Pass 0  IDiag  1:
 RMSU=  1.08D-03    CP:  9.74D-01  1.00D+00  2.97D-01 -3.95D-02
 E= -772.023896494262     Delta-E=       -1.192459532051 Rises=F Damp=F
 DIIS: error= 6.05D-03 at cycle   5 NSaved=   5.
 NSaved= 5 IEnMin= 5 EnMin= -772.023896494262     IErMin= 5 ErrMin= 6.05D-03
 ErrMax= 6.05D-03  0.00D+00 EMaxC= 1.00D-01 BMatC= 2.53D-02 BMatP= 1.20D-01
 IDIUse=3 WtCom= 9.40D-01 WtEn= 6.05D-02
 Coeff-Com: -0.307D+00 0.565D+00 0.287D+00 0.162D-01 0.439D+00
 Coeff-En:   0.000D+00 0.000D+00 0.000D+00 0.000D+00 0.100D+01
 Coeff:     -0.289D+00 0.531D+00 0.269D+00 0.152D-01 0.473D+00
 Gap=     0.065 Goal=   None    Shift=    0.000
 RMSDP=6.14D-04 MaxDP=3.59D-02 DE=-1.19D+00 OVMax= 9.71D-02

 Cycle   6  Pass 0  IDiag  1:
 RMSU=  4.42D-04    CP:  9.71D-01  1.01D+00  4.55D-01 -1.54D-01  7.37D-01
 E= -772.037021573794     Delta-E=       -0.013125079532 Rises=F Damp=F
 DIIS: error= 5.89D-03 at cycle   6 NSaved=   6.
 NSaved= 6 IEnMin= 6 EnMin= -772.037021573794     IErMin= 6 ErrMin= 5.89D-03
 ErrMax= 5.89D-03  0.00D+00 EMaxC= 1.00D-01 BMatC= 9.29D-03 BMatP= 2.53D-02
 IDIUse=3 WtCom= 9.41D-01 WtEn= 5.89D-02
 Coeff-Com: -0.236D+00 0.354D+00 0.410D-01-0.262D-01 0.316D+00 0.552D+00
 Coeff-En:   0.000D+00 0.000D+00 0.000D+00 0.000D+00 0.324D+00 0.676D+00
 Coeff:     -0.222D+00 0.333D+00 0.386D-01-0.247D-01 0.316D+00 0.559D+00
 Gap=     0.045 Goal=   None    Shift=    0.000
 RMSDP=4.17D-04 MaxDP=2.00D-02 DE=-1.31D-02 OVMax= 9.17D-02

 Cycle   7  Pass 0  IDiag  1:
 RMSU=  2.16D-04    CP:  9.71D-01  1.16D+00  3.66D-01 -1.71D-01  9.49D-01
                    CP:  6.44D-01
 E= -772.051765498439     Delta-E=       -0.014743924644 Rises=F Damp=F
 DIIS: error= 1.02D-03 at cycle   7 NSaved=   7.
 NSaved= 7 IEnMin= 7 EnMin= -772.051765498439     IErMin= 7 ErrMin= 1.02D-03
 ErrMax= 1.02D-03  0.00D+00 EMaxC= 1.00D-01 BMatC= 4.46D-04 BMatP= 9.29D-03
 IDIUse=3 WtCom= 9.90D-01 WtEn= 1.02D-02
 Coeff-Com: -0.669D-01 0.956D-01-0.132D-01-0.723D-02 0.771D-01 0.286D+00
 Coeff-Com:  0.629D+00
 Coeff-En:   0.000D+00 0.000D+00 0.000D+00 0.000D+00 0.000D+00 0.000D+00
 Coeff-En:   0.100D+01
 Coeff:     -0.662D-01 0.946D-01-0.131D-01-0.715D-02 0.763D-01 0.283D+00
 Coeff:      0.633D+00
 Gap=     0.046 Goal=   None    Shift=    0.000
 RMSDP=8.28D-05 MaxDP=5.19D-03 DE=-1.47D-02 OVMax= 2.30D-02

 Cycle   8  Pass 0  IDiag  1:
 RMSU=  6.40D-05    CP:  9.70D-01  1.16D+00  3.59D-01 -1.65D-01  9.49D-01
                    CP:  7.56D-01  1.04D+00
 E= -772.052220068200     Delta-E=       -0.000454569761 Rises=F Damp=F
 DIIS: error= 5.34D-04 at cycle   8 NSaved=   8.
 NSaved= 8 IEnMin= 8 EnMin= -772.052220068200     IErMin= 8 ErrMin= 5.34D-04
 ErrMax= 5.34D-04  0.00D+00 EMaxC= 1.00D-01 BMatC= 1.24D-04 BMatP= 4.46D-04
 IDIUse=3 WtCom= 9.95D-01 WtEn= 5.34D-03
 Coeff-Com:  0.136D-02 0.711D-03-0.125D-01-0.259D-03-0.274D-01 0.672D-01
 Coeff-Com:  0.402D+00 0.569D+00
 Coeff-En:   0.000D+00 0.000D+00 0.000D+00 0.000D+00 0.000D+00 0.000D+00
 Coeff-En:   0.120D+00 0.880D+00
 Coeff:      0.135D-02 0.707D-03-0.125D-01-0.258D-03-0.273D-01 0.669D-01
 Coeff:      0.401D+00 0.570D+00
 Gap=     0.049 Goal=   None    Shift=    0.000
 RMSDP=3.20D-05 MaxDP=1.81D-03 DE=-4.55D-04 OVMax= 5.62D-03

 Cycle   9  Pass 0  IDiag  1:
 RMSU=  2.54D-05    CP:  9.70D-01  1.15D+00  3.62D-01 -1.67D-01  9.46D-01
                    CP:  7.53D-01  1.06D+00  7.42D-01
 E= -772.052349904678     Delta-E=       -0.000129836478 Rises=F Damp=F
 DIIS: error= 9.72D-05 at cycle   9 NSaved=   9.
 NSaved= 9 IEnMin= 9 EnMin= -772.052349904678     IErMin= 9 ErrMin= 9.72D-05
 ErrMax= 9.72D-05  0.00D+00 EMaxC= 1.00D-01 BMatC= 5.47D-06 BMatP= 1.24D-04
 IDIUse=1 WtCom= 1.00D+00 WtEn= 0.00D+00
 Coeff-Com:  0.352D-02-0.376D-02-0.185D-02-0.308D-03-0.116D-01 0.952D-02
 Coeff-Com:  0.768D-01 0.163D+00 0.765D+00
 Coeff:      0.352D-02-0.376D-02-0.185D-02-0.308D-03-0.116D-01 0.952D-02
 Coeff:      0.768D-01 0.163D+00 0.765D+00
 Gap=     0.049 Goal=   None    Shift=    0.000
 RMSDP=9.77D-06 MaxDP=5.24D-04 DE=-1.30D-04 OVMax= 1.99D-03

 Initial convergence to 1.0D-05 achieved.  Increase integral accuracy.
 Cycle  10  Pass 1  IDiag  1:
 E= -772.052529100827     Delta-E=       -0.000179196149 Rises=F Damp=F
 DIIS: error= 6.57D-05 at cycle   1 NSaved=   1.
 NSaved= 1 IEnMin= 1 EnMin= -772.052529100827     IErMin= 1 ErrMin= 6.57D-05
 ErrMax= 6.57D-05  0.00D+00 EMaxC= 1.00D-01 BMatC= 3.15D-06 BMatP= 3.15D-06
 IDIUse=1 WtCom= 1.00D+00 WtEn= 0.00D+00
 Coeff-Com:  0.100D+01
 Coeff:      0.100D+01
 Gap=     0.050 Goal=   None    Shift=    0.000
 RMSDP=9.77D-06 MaxDP=5.24D-04 DE=-1.79D-04 OVMax= 3.78D-03

 Cycle  11  Pass 1  IDiag  1:
 RMSU=  1.67D-05    CP:  1.00D+00
 E= -772.052519406544     Delta-E=        0.000009694283 Rises=F Damp=F
 DIIS: error= 1.23D-04 at cycle   2 NSaved=   2.
 NSaved= 2 IEnMin= 1 EnMin= -772.052529100827     IErMin= 1 ErrMin= 6.57D-05
 ErrMax= 1.23D-04  0.00D+00 EMaxC= 1.00D-01 BMatC= 1.14D-05 BMatP= 3.15D-06
 IDIUse=3 WtCom= 4.74D-01 WtEn= 5.26D-01
 Coeff-Com:  0.659D+00 0.341D+00
 Coeff-En:   0.743D+00 0.257D+00
 Coeff:      0.703D+00 0.297D+00
 Gap=     0.049 Goal=   None    Shift=    0.000
 RMSDP=9.30D-06 MaxDP=4.39D-04 DE= 9.69D-06 OVMax= 2.16D-03

 Cycle  12  Pass 1  IDiag  1:
 RMSU=  3.54D-06    CP:  1.00D+00  4.86D-01
 E= -772.052532604297     Delta-E=       -0.000013197753 Rises=F Damp=F
 DIIS: error= 1.66D-05 at cycle   3 NSaved=   3.
 NSaved= 3 IEnMin= 3 EnMin= -772.052532604297     IErMin= 3 ErrMin= 1.66D-05
 ErrMax= 1.66D-05  0.00D+00 EMaxC= 1.00D-01 BMatC= 1.87D-07 BMatP= 3.15D-06
 IDIUse=1 WtCom= 1.00D+00 WtEn= 0.00D+00
 Coeff-Com:  0.299D+00 0.968D-01 0.604D+00
 Coeff:      0.299D+00 0.968D-01 0.604D+00
 Gap=     0.049 Goal=   None    Shift=    0.000
 RMSDP=1.14D-06 MaxDP=6.69D-05 DE=-1.32D-05 OVMax= 1.51D-04

 Cycle  13  Pass 1  IDiag  1:
 RMSU=  1.00D-06    CP:  1.00D+00  4.54D-01  1.04D+00
 E= -772.052532765021     Delta-E=       -0.000000160723 Rises=F Damp=F
 DIIS: error= 9.16D-06 at cycle   4 NSaved=   4.
 NSaved= 4 IEnMin= 4 EnMin= -772.052532765021     IErMin= 4 ErrMin= 9.16D-06
 ErrMax= 9.16D-06  0.00D+00 EMaxC= 1.00D-01 BMatC= 2.73D-08 BMatP= 1.87D-07
 IDIUse=1 WtCom= 1.00D+00 WtEn= 0.00D+00
 Coeff-Com:  0.202D-01-0.195D-01 0.352D+00 0.647D+00
 Coeff:      0.202D-01-0.195D-01 0.352D+00 0.647D+00
 Gap=     0.049 Goal=   None    Shift=    0.000
 RMSDP=6.63D-07 MaxDP=5.85D-05 DE=-1.61D-07 OVMax= 1.20D-04

 Cycle  14  Pass 1  IDiag  1:
 RMSU=  4.07D-07    CP:  1.00D+00  4.43D-01  1.10D+00  5.67D-01
 E= -772.052532785327     Delta-E=       -0.000000020306 Rises=F Damp=F
 DIIS: error= 5.34D-06 at cycle   5 NSaved=   5.
 NSaved= 5 IEnMin= 5 EnMin= -772.052532785327     IErMin= 5 ErrMin= 5.34D-06
 ErrMax= 5.34D-06  0.00D+00 EMaxC= 1.00D-01 BMatC= 7.62D-09 BMatP= 2.73D-08
 IDIUse=1 WtCom= 1.00D+00 WtEn= 0.00D+00
 Coeff-Com: -0.125D-01-0.189D-01 0.171D+00 0.447D+00 0.413D+00
 Coeff:     -0.125D-01-0.189D-01 0.171D+00 0.447D+00 0.413D+00
 Gap=     0.049 Goal=   None    Shift=    0.000
 RMSDP=3.09D-07 MaxDP=1.73D-05 DE=-2.03D-08 OVMax= 7.24D-05

 Cycle  15  Pass 1  IDiag  1:
 RMSU=  1.47D-07    CP:  1.00D+00  4.50D-01  1.09D+00  7.14D-01  5.23D-01
 E= -772.052532794800     Delta-E=       -0.000000009473 Rises=F Damp=F
 DIIS: error= 6.31D-07 at cycle   6 NSaved=   6.
 NSaved= 6 IEnMin= 6 EnMin= -772.052532794800     IErMin= 6 ErrMin= 6.31D-07
 ErrMax= 6.31D-07  0.00D+00 EMaxC= 1.00D-01 BMatC= 2.81D-10 BMatP= 7.62D-09
 IDIUse=1 WtCom= 1.00D+00 WtEn= 0.00D+00
 Coeff-Com: -0.816D-02-0.764D-02 0.646D-01 0.205D+00 0.208D+00 0.538D+00
 Coeff:     -0.816D-02-0.764D-02 0.646D-01 0.205D+00 0.208D+00 0.538D+00
 Gap=     0.049 Goal=   None    Shift=    0.000
 RMSDP=6.13D-08 MaxDP=2.73D-06 DE=-9.47D-09 OVMax= 1.20D-05

 Cycle  16  Pass 1  IDiag  1:
 RMSU=  4.89D-08    CP:  1.00D+00  4.50D-01  1.10D+00  7.09D-01  5.96D-01
                    CP:  8.84D-01
 E= -772.052532795081     Delta-E=       -0.000000000281 Rises=F Damp=F
 DIIS: error= 3.40D-07 at cycle   7 NSaved=   7.
 NSaved= 7 IEnMin= 7 EnMin= -772.052532795081     IErMin= 7 ErrMin= 3.40D-07
 ErrMax= 3.40D-07  0.00D+00 EMaxC= 1.00D-01 BMatC= 6.44D-11 BMatP= 2.81D-10
 IDIUse=1 WtCom= 1.00D+00 WtEn= 0.00D+00
 Coeff-Com: -0.523D-03 0.277D-02-0.230D-01-0.262D-01-0.247D-01 0.326D+00
 Coeff-Com:  0.746D+00
 Coeff:     -0.523D-03 0.277D-02-0.230D-01-0.262D-01-0.247D-01 0.326D+00
 Coeff:      0.746D+00
 Gap=     0.049 Goal=   None    Shift=    0.000
 RMSDP=4.23D-08 MaxDP=1.72D-06 DE=-2.81D-10 OVMax= 1.20D-05

 Cycle  17  Pass 1  IDiag  1:
 RMSU=  1.30D-08    CP:  1.00D+00  4.52D-01  1.10D+00  7.27D-01  5.86D-01
                    CP:  1.06D+00  8.40D-01
 E= -772.052532795159     Delta-E=       -0.000000000078 Rises=F Damp=F
 DIIS: error= 8.33D-08 at cycle   8 NSaved=   8.
 NSaved= 8 IEnMin= 8 EnMin= -772.052532795159     IErMin= 8 ErrMin= 8.33D-08
 ErrMax= 8.33D-08  0.00D+00 EMaxC= 1.00D-01 BMatC= 4.08D-12 BMatP= 6.44D-11
 IDIUse=1 WtCom= 1.00D+00 WtEn= 0.00D+00
 Coeff-Com:  0.440D-04 0.169D-02-0.142D-01-0.213D-01-0.187D-01 0.148D+00
 Coeff-Com:  0.404D+00 0.500D+00
 Coeff:      0.440D-04 0.169D-02-0.142D-01-0.213D-01-0.187D-01 0.148D+00
 Coeff:      0.404D+00 0.500D+00
 Gap=     0.049 Goal=   None    Shift=    0.000
 RMSDP=8.89D-09 MaxDP=5.23D-07 DE=-7.82D-11 OVMax= 2.27D-06

 SCF Done:  E(RB3LYP) =  -772.052532795     A.U. after   17 cycles
            NFock= 17  Conv=0.89D-08     -V/T= 2.0103
 KE= 7.641737262688D+02 PE=-4.005113319168D+03 EE= 1.352089996175D+03
 Leave Link  502 at Tue Jun  8 16:18:07 2021, MaxMem=    33554432 cpu:       360.1
 (Enter /opt/app/gaussian09/e01/g09/l601.exe)
 Copying SCF densities to generalized density rwf, IOpCl= 0 IROHF=0.

 **********************************************************************

            Population analysis using the SCF density.

 **********************************************************************

 Orbital symmetries:
       Occupied  (A) (A) (A) (A) (A) (A) (A) (A) (A) (A) (A) (A)
                 (A) (A) (A) (A) (A) (A) (A) (A) (A) (A) (A) (A)
                 (A) (A) (A) (A) (A) (A) (A) (A) (A) (A) (A) (A)
                 (A) (A) (A) (A) (A) (A) (A) (A) (A) (A) (A) (A)
                 (A) (A) (A) (A) (A) (A) (A) (A) (A) (A) (A) (A)
                 (A) (A) (A) (A) (A) (A) (A) (A) (A) (A)
       Virtual   (A) (A) (A) (A) (A) (A) (A) (A) (A) (A) (A) (A)
                 (A) (A) (A) (A) (A) (A) (A) (A) (A) (A) (A) (A)
                 (A) (A) (A) (A) (A) (A) (A) (A) (A) (A) (A) (A)
                 (A) (A) (A) (A) (A) (A) (A) (A) (A) (A) (A) (A)
                 (A) (A) (A) (A) (A) (A) (A) (A) (A) (A) (A) (A)
                 (A) (A) (A) (A) (A) (A) (A) (A) (A) (A) (A) (A)
                 (A) (A) (A) (A) (A) (A) (A) (A) (A) (A) (A) (A)
                 (A) (A) (A) (A) (A) (A) (A) (A) (A) (A) (A) (A)
                 (A) (A) (A) (A) (A) (A) (A) (A) (A) (A) (A) (A)
                 (A) (A) (A) (A) (A) (A) (A) (A) (A) (A) (A) (A)
                 (A) (A) (A) (A) (A) (A) (A) (A) (A) (A) (A) (A)
                 (A) (A) (A) (A) (A) (A) (A) (A) (A) (A) (A) (A)
                 (A) (A) (A) (A) (A) (A) (A) (A) (A) (A) (A) (A)
                 (A) (A) (A) (A) (A) (A) (A) (A) (A) (A) (A) (A)
                 (A) (A) (A) (A) (A) (A) (A) (A) (A) (A) (A) (A)
                 (A) (A) (A) (A) (A) (A) (A) (A) (A) (A) (A) (A)
                 (A) (A) (A) (A) (A) (A) (A) (A) (A) (A) (A) (A)
                 (A) (A) (A) (A) (A) (A) (A) (A) (A) (A) (A) (A)
                 (A) (A) (A) (A) (A) (A) (A) (A) (A) (A) (A) (A)
                 (A) (A) (A) (A) (A) (A) (A) (A) (A) (A) (A) (A)
                 (A) (A) (A) (A) (A) (A) (A) (A) (A) (A) (A) (A)
                 (A) (A) (A) (A) (A) (A) (A) (A) (A) (A) (A) (A)
                 (A) (A) (A) (A) (A) (A) (A) (A) (A) (A) (A) (A)
                 (A) (A) (A) (A) (A) (A) (A) (A) (A) (A) (A) (A)
                 (A) (A) (A) (A) (A) (A) (A) (A) (A) (A) (A) (A)
                 (A) (A) (A) (A) (A) (A) (A) (A) (A) (A) (A) (A)
                 (A) (A) (A) (A) (A) (A) (A) (A) (A) (A) (A) (A)
                 (A) (A) (A) (A) (A) (A) (A) (A) (A) (A) (A) (A)
                 (A) (A) (A) (A)
 The electronic state is 1-A.
 Alpha  occ. eigenvalues --  -14.55704 -14.41290 -10.40841 -10.36064 -10.35985
 Alpha  occ. eigenvalues --  -10.34463 -10.33246 -10.31768 -10.30914 -10.29896
 Alpha  occ. eigenvalues --  -10.29156 -10.28659 -10.28430 -10.27752 -10.27441
 Alpha  occ. eigenvalues --  -10.26550 -10.25927 -10.25868 -10.25346  -1.13825
 Alpha  occ. eigenvalues --   -0.99187  -0.93760  -0.90676  -0.89003  -0.88740
 Alpha  occ. eigenvalues --   -0.87099  -0.85104  -0.82406  -0.78970  -0.77509
 Alpha  occ. eigenvalues --   -0.75005  -0.71471  -0.70672  -0.68960  -0.66769
 Alpha  occ. eigenvalues --   -0.65774  -0.64887  -0.63646  -0.63429  -0.62908
 Alpha  occ. eigenvalues --   -0.62105  -0.57243  -0.56859  -0.56154  -0.56151
 Alpha  occ. eigenvalues --   -0.55688  -0.54473  -0.54373  -0.53055  -0.52359
 Alpha  occ. eigenvalues --   -0.51839  -0.50351  -0.49916  -0.48385  -0.48276
 Alpha  occ. eigenvalues --   -0.47678  -0.46785  -0.46075  -0.45369  -0.44659
 Alpha  occ. eigenvalues --   -0.44219  -0.44126  -0.42359  -0.41520  -0.41052
 Alpha  occ. eigenvalues --   -0.39271  -0.36781  -0.33915  -0.30412  -0.25779
 Alpha virt. eigenvalues --   -0.20832  -0.13517  -0.09426  -0.06083  -0.04490
 Alpha virt. eigenvalues --   -0.03340  -0.02865  -0.02023  -0.00912   0.00382
 Alpha virt. eigenvalues --    0.00732   0.01206   0.02126   0.02469   0.02730
 Alpha virt. eigenvalues --    0.03379   0.03913   0.04226   0.04806   0.05526
 Alpha virt. eigenvalues --    0.05772   0.06132   0.06166   0.06441   0.07165
 Alpha virt. eigenvalues --    0.07564   0.07992   0.09145   0.09904   0.10526
 Alpha virt. eigenvalues --    0.11270   0.12304   0.12386   0.13488   0.14862
 Alpha virt. eigenvalues --    0.15720   0.17149   0.18085   0.18420   0.19928
 Alpha virt. eigenvalues --    0.22306   0.23214   0.23565   0.25962   0.26952
 Alpha virt. eigenvalues --    0.27203   0.29581   0.31811   0.32245   0.33611
 Alpha virt. eigenvalues --    0.33749   0.35318   0.36351   0.39841   0.40567
 Alpha virt. eigenvalues --    0.41196   0.41754   0.42988   0.43566   0.44064
 Alpha virt. eigenvalues --    0.45363   0.45988   0.46320   0.46737   0.47883
 Alpha virt. eigenvalues --    0.48171   0.48559   0.48938   0.50064   0.50541
 Alpha virt. eigenvalues --    0.51165   0.51497   0.52398   0.52814   0.53340
 Alpha virt. eigenvalues --    0.53632   0.54106   0.55051   0.55410   0.56267
 Alpha virt. eigenvalues --    0.56816   0.58099   0.59746   0.61125   0.61751
 Alpha virt. eigenvalues --    0.63814   0.64769   0.65303   0.66237   0.68089
 Alpha virt. eigenvalues --    0.68951   0.69217   0.69619   0.71522   0.71842
 Alpha virt. eigenvalues --    0.73386   0.73557   0.73977   0.74900   0.75058
 Alpha virt. eigenvalues --    0.75907   0.75981   0.76253   0.76576   0.77460
 Alpha virt. eigenvalues --    0.78188   0.78776   0.78899   0.79645   0.79846
 Alpha virt. eigenvalues --    0.80793   0.81865   0.82360   0.82797   0.83409
 Alpha virt. eigenvalues --    0.85187   0.85937   0.86312   0.86553   0.88154
 Alpha virt. eigenvalues --    0.88652   0.90027   0.90162   0.92266   0.92722
 Alpha virt. eigenvalues --    0.93902   0.94767   0.96023   0.96408   0.97501
 Alpha virt. eigenvalues --    0.98664   0.99402   1.02244   1.04230   1.06679
 Alpha virt. eigenvalues --    1.08561   1.10228   1.10911   1.12308   1.15126
 Alpha virt. eigenvalues --    1.16288   1.17101   1.19243   1.19405   1.20381
 Alpha virt. eigenvalues --    1.20880   1.21589   1.21880   1.22561   1.23348
 Alpha virt. eigenvalues --    1.23969   1.24968   1.26158   1.27248   1.27812
 Alpha virt. eigenvalues --    1.29686   1.31945   1.33178   1.34682   1.35357
 Alpha virt. eigenvalues --    1.36222   1.38299   1.38724   1.39890   1.41725
 Alpha virt. eigenvalues --    1.44093   1.47686   1.48806   1.56606   1.58001
 Alpha virt. eigenvalues --    1.59386   1.61494   1.62986   1.64431   1.64856
 Alpha virt. eigenvalues --    1.65384   1.66534   1.67138   1.69833   1.72776
 Alpha virt. eigenvalues --    1.74332   1.76446   1.76636   1.77495   1.78309
 Alpha virt. eigenvalues --    1.80156   1.81252   1.82194   1.83485   1.84476
 Alpha virt. eigenvalues --    1.84615   1.85875   1.86977   1.87471   1.88785
 Alpha virt. eigenvalues --    1.89195   1.89276   1.89496   1.91007   1.92138
 Alpha virt. eigenvalues --    1.93628   1.94505   1.95089   1.95549   1.96526
 Alpha virt. eigenvalues --    1.98123   1.98613   1.99969   2.00310   2.00952
 Alpha virt. eigenvalues --    2.01630   2.02464   2.03272   2.03752   2.05549
 Alpha virt. eigenvalues --    2.06223   2.07013   2.07419   2.08692   2.10094
 Alpha virt. eigenvalues --    2.11056   2.11426   2.12319   2.12578   2.14452
 Alpha virt. eigenvalues --    2.16741   2.18516   2.18842   2.20318   2.21122
 Alpha virt. eigenvalues --    2.22179   2.24731   2.27739   2.30027   2.31781
 Alpha virt. eigenvalues --    2.32906   2.33660   2.35568   2.37273   2.37733
 Alpha virt. eigenvalues --    2.38864   2.39722   2.40052   2.40888   2.41254
 Alpha virt. eigenvalues --    2.41995   2.43407   2.43578   2.44376   2.45127
 Alpha virt. eigenvalues --    2.46997   2.47222   2.48193   2.48478   2.49350
 Alpha virt. eigenvalues --    2.50873   2.51667   2.52683   2.54074   2.54331
 Alpha virt. eigenvalues --    2.54717   2.55276   2.56660   2.56882   2.58604
 Alpha virt. eigenvalues --    2.58950   2.60005   2.60374   2.61945   2.64284
 Alpha virt. eigenvalues --    2.64647   2.65305   2.68275   2.70429   2.70999
 Alpha virt. eigenvalues --    2.71560   2.73532   2.73647   2.75303   2.76647
 Alpha virt. eigenvalues --    2.77328   2.78337   2.78713   2.80668   2.81148
 Alpha virt. eigenvalues --    2.82603   2.85110   2.86237   2.87759   2.88252
 Alpha virt. eigenvalues --    2.89385   2.91385   2.94253   2.94317   2.96898
 Alpha virt. eigenvalues --    3.00998   3.10463   3.13628   3.19569   3.23429
 Alpha virt. eigenvalues --    3.25848   3.28483   3.30464   3.31122   3.31628
 Alpha virt. eigenvalues --    3.32428   3.33483   3.34669   3.36894   3.38141
 Alpha virt. eigenvalues --    3.39848   3.40470   3.41102   3.44308   3.45818
 Alpha virt. eigenvalues --    3.46560   3.48075   3.50450   3.52013   3.55199
 Alpha virt. eigenvalues --    3.56100   3.88263   3.99214   4.01997   4.03735
 Alpha virt. eigenvalues --    4.05125   4.06333   4.08392   4.11003   4.17446
 Alpha virt. eigenvalues --    4.21662   4.28441   4.32655   4.35502   4.41098
 Alpha virt. eigenvalues --    4.43900   4.45397   4.49479   4.55141   4.60541
          Condensed to atoms (all electrons):
               1          2          3          4          5          6
     1  C    4.836409   0.380190   0.570270  -0.047898  -0.017546  -0.003987
     2  H    0.380190   0.614153  -0.051754   0.005838  -0.008628   0.003409
     3  C    0.570270  -0.051754   4.890577   0.384624   0.397314  -0.039871
     4  H   -0.047898   0.005838   0.384624   0.609302  -0.044485   0.003498
     5  C   -0.017546  -0.008628   0.397314  -0.044485   4.857652   0.381452
     6  H   -0.003987   0.003409  -0.039871   0.003498   0.381452   0.606610
     7  C    0.404615  -0.041892  -0.023346  -0.008756   0.002999   0.000117
     8  H   -0.038863   0.003592  -0.004935   0.003416   0.000165   0.000003
     9  C   -0.017628  -0.004305   0.002143   0.000385  -0.000176  -0.000001
    10  H   -0.007615   0.003627   0.000335   0.000011  -0.000000   0.000001
    11  N    0.002532   0.000011  -0.000090  -0.000002   0.000000  -0.000000
    12  C    0.002248   0.000425  -0.023236  -0.004028   0.559620  -0.052534
    13  H    0.000405   0.000013  -0.008226   0.003284  -0.047183   0.005684
    14  C   -0.000185  -0.000003   0.002951   0.000142  -0.017185  -0.008461
    15  H   -0.000002   0.000001   0.000112   0.000003  -0.003871   0.003352
    16  C    0.000002  -0.000000  -0.000157  -0.000002   0.002299   0.000419
    17  H   -0.000000  -0.000000  -0.000004   0.000001   0.000400   0.000013
    18  C   -0.000000   0.000000   0.000001  -0.000000  -0.000187  -0.000002
    19  H    0.000000  -0.000000  -0.000000  -0.000000  -0.000002   0.000001
    20  C   -0.000000   0.000000  -0.000000   0.000000   0.000002  -0.000000
    21  H    0.000000   0.000000   0.000000  -0.000000  -0.000000   0.000000
    22  C   -0.000000  -0.000000   0.000000  -0.000000  -0.000000   0.000000
    23  H   -0.000000   0.000000  -0.000000   0.000000   0.000000  -0.000000
    24  C    0.000000   0.000000   0.000000   0.000000  -0.000000   0.000000
    25  H    0.000000   0.000000  -0.000000   0.000000   0.000000   0.000000
    26  N    0.000000   0.000000   0.000000   0.000000   0.000000   0.000000
    27  C    0.000000   0.000000   0.000000   0.000000  -0.000000  -0.000000
    28  H    0.000000   0.000000   0.000000   0.000000  -0.000000   0.000000
    29  C    0.000000   0.000000   0.000000   0.000000   0.000000  -0.000000
    30  H    0.000000   0.000000   0.000000   0.000000   0.000000   0.000000
    31  H    0.000000   0.000000   0.000000   0.000000   0.000000   0.000000
    32  H    0.000000   0.000000   0.000000   0.000000   0.000000   0.000000
    33  C    0.000000   0.000000   0.000000  -0.000000  -0.000000   0.000000
    34  H    0.000000   0.000000   0.000000   0.000000  -0.000000   0.000000
    35  H    0.000000   0.000000   0.000000  -0.000000  -0.000000  -0.000000
    36  H    0.000000   0.000000   0.000000   0.000000  -0.000000   0.000000
    37  C   -0.000108  -0.000001   0.000002   0.000000  -0.000000   0.000000
    38  H    0.000002   0.000000  -0.000000  -0.000000   0.000000  -0.000000
    39  H   -0.000003   0.000000   0.000000   0.000000   0.000000   0.000000
    40  H    0.000002   0.000000  -0.000001   0.000000  -0.000000  -0.000000
    41  C    0.000228   0.000008  -0.000001  -0.000010  -0.000000  -0.000000
    42  H   -0.000058  -0.000002  -0.000033   0.000001  -0.000000  -0.000000
    43  H    0.000372  -0.000003  -0.000012  -0.000009  -0.000000  -0.000000
    44  H   -0.000017   0.000000  -0.000000   0.000000   0.000000   0.000000
               7          8          9         10         11         12
     1  C    0.404615  -0.038863  -0.017628  -0.007615   0.002532   0.002248
     2  H   -0.041892   0.003592  -0.004305   0.003627   0.000011   0.000425
     3  C   -0.023346  -0.004935   0.002143   0.000335  -0.000090  -0.023236
     4  H   -0.008756   0.003416   0.000385   0.000011  -0.000002  -0.004028
     5  C    0.002999   0.000165  -0.000176  -0.000000   0.000000   0.559620
     6  H    0.000117   0.000003  -0.000001   0.000001  -0.000000  -0.052534
     7  C    4.902484   0.382394   0.585884  -0.049378  -0.039965  -0.000161
     8  H    0.382394   0.612889  -0.050060   0.005623  -0.010383  -0.000002
     9  C    0.585884  -0.050060   4.797109   0.382022   0.314456   0.000002
    10  H   -0.049378   0.005623   0.382022   0.591529  -0.042346  -0.000000
    11  N   -0.039965  -0.010383   0.314456  -0.042346   6.833866  -0.000000
    12  C   -0.000161  -0.000002   0.000002  -0.000000  -0.000000   4.892216
    13  H   -0.000004   0.000001  -0.000000   0.000000  -0.000000   0.385655
    14  C    0.000001  -0.000000  -0.000000   0.000000   0.000000   0.400445
    15  H   -0.000000  -0.000000   0.000000  -0.000000  -0.000000  -0.038867
    16  C   -0.000000   0.000000  -0.000000   0.000000  -0.000000  -0.023564
    17  H    0.000000  -0.000000   0.000000   0.000000  -0.000000  -0.008015
    18  C    0.000000  -0.000000  -0.000000  -0.000000   0.000000   0.002887
    19  H   -0.000000   0.000000  -0.000000   0.000000   0.000000   0.000110
    20  C    0.000000  -0.000000   0.000000   0.000000   0.000000  -0.000155
    21  H   -0.000000   0.000000   0.000000   0.000000   0.000000  -0.000004
    22  C    0.000000   0.000000   0.000000   0.000000   0.000000   0.000001
    23  H    0.000000   0.000000   0.000000   0.000000   0.000000  -0.000000
[...]
    20  C   -0.052144   4.891952   0.385712   0.506196  -0.048890  -0.026467
    21  H    0.005342   0.385712   0.615011  -0.051371   0.005537  -0.007325
    22  C   -0.007420   0.506196  -0.051371   4.791273   0.379453   0.481582
    23  H    0.005034  -0.048890   0.005537   0.379453   0.621411  -0.056219
    24  C    0.000377  -0.026467  -0.007325   0.481582  -0.056219   4.911234
    25  H    0.000009  -0.006720   0.003798  -0.040882   0.005156   0.381913
    26  N   -0.000000  -0.000119   0.000001   0.001953   0.000161  -0.040603
    27  C    0.000000   0.002394   0.000363  -0.005197  -0.006720   0.516061
    28  H    0.000002   0.000298   0.000009  -0.006956   0.005283  -0.044686
    29  C    0.000000   0.000001   0.000000  -0.000061  -0.000006   0.004418
    30  H   -0.000000  -0.000000  -0.000000   0.000003   0.000000  -0.000134
    31  H   -0.000000  -0.000000  -0.000000   0.000003   0.000000  -0.000137
    32  H    0.000000   0.000000   0.000000  -0.000008  -0.000001   0.000328
    33  C   -0.000000   0.000001  -0.000003   0.000211   0.000013  -0.004153
    34  H   -0.000000  -0.000012  -0.000001   0.000094  -0.000001   0.003671
    35  H   -0.000000  -0.000012  -0.000001   0.000103  -0.000001   0.003751
    36  H    0.000000  -0.000000   0.000000  -0.000011   0.000000   0.000146
    37  C   -0.000000   0.000000   0.000000   0.000000   0.000000   0.000000
    38  H    0.000000   0.000000   0.000000   0.000000   0.000000   0.000000
    39  H    0.000000   0.000000   0.000000   0.000000   0.000000   0.000000
    40  H    0.000000   0.000000   0.000000   0.000000   0.000000   0.000000
    41  C    0.000000   0.000000   0.000000   0.000000   0.000000   0.000000
    42  H   -0.000000   0.000000  -0.000000   0.000000   0.000000   0.000000
    43  H   -0.000000   0.000000  -0.000000   0.000000   0.000000   0.000000
    44  H    0.000000   0.000000   0.000000   0.000000   0.000000   0.000000
              25         26         27         28         29         30
     1  C    0.000000   0.000000  -0.000000   0.000000   0.000000   0.000000
     2  H    0.000000   0.000000  -0.000000   0.000000   0.000000   0.000000
     3  C   -0.000000   0.000000   0.000000   0.000000   0.000000   0.000000
     4  H    0.000000   0.000000   0.000000   0.000000   0.000000   0.000000
     5  C    0.000000   0.000000   0.000000  -0.000000  -0.000000   0.000000
     6  H    0.000000   0.000000  -0.000000   0.000000  -0.000000   0.000000
     7  C    0.000000   0.000000   0.000000   0.000000   0.000000   0.000000
     8  H    0.000000   0.000000   0.000000   0.000000   0.000000   0.000000
     9  C    0.000000   0.000000   0.000000   0.000000   0.000000   0.000000
    10  H    0.000000   0.000000   0.000000   0.000000   0.000000   0.000000
    11  N    0.000000   0.000000   0.000000   0.000000   0.000000   0.000000
    12  C    0.000000  -0.000000  -0.000000   0.000000   0.000000  -0.000000
    13  H   -0.000000  -0.000000   0.000000   0.000000   0.000000  -0.000000
    14  C   -0.000000   0.000000  -0.000000   0.000000  -0.000000   0.000000
    15  H   -0.000000   0.000000   0.000000  -0.000000   0.000000   0.000000
    16  C    0.000002  -0.000000   0.000002  -0.000000   0.000000   0.000000
    17  H    0.000001   0.000000  -0.000000  -0.000000   0.000000  -0.000000
    18  C    0.000294   0.000001  -0.000265   0.000004  -0.000000  -0.000000
    19  H    0.000009  -0.000000   0.000000   0.000002   0.000000  -0.000000
    20  C   -0.006720  -0.000119   0.002394   0.000298   0.000001  -0.000000
    21  H    0.003798   0.000001   0.000363   0.000009   0.000000  -0.000000
    22  C   -0.040882   0.001953  -0.005197  -0.006956  -0.000061   0.000003
    23  H    0.005156   0.000161  -0.006720   0.005283  -0.000006   0.000000
    24  C    0.381913  -0.040603   0.516061  -0.044686   0.004418  -0.000134
    25  H    0.600683  -0.008416  -0.048059   0.004861  -0.000012   0.000001
    26  N   -0.008416   6.737700   0.382841  -0.048950   0.301869  -0.041292
    27  C   -0.048059   0.382841   4.707768   0.382080  -0.037650   0.000574
    28  H    0.004861  -0.048950   0.382080   0.577058  -0.007520   0.000190
    29  C   -0.000012   0.301869  -0.037650  -0.007520   4.805829   0.388436
    30  H    0.000001  -0.041292   0.000574   0.000190   0.388436   0.566292
    31  H    0.000001  -0.041166   0.000628   0.000196   0.388432  -0.039557
    32  H    0.000000  -0.032380  -0.002902   0.006156   0.388550  -0.026197
    33  C    0.005817   0.292167  -0.047654   0.004759  -0.043032  -0.001635
    34  H    0.000314  -0.038695  -0.004287  -0.000093   0.002131   0.001288
    35  H    0.000311  -0.038460  -0.004396  -0.000089   0.002213  -0.000401
    36  H    0.000043  -0.032062   0.004360  -0.000172  -0.002827   0.000916
    37  C    0.000000   0.000000   0.000000   0.000000   0.000000   0.000000
    38  H    0.000000   0.000000   0.000000   0.000000   0.000000   0.000000
    39  H    0.000000   0.000000   0.000000   0.000000   0.000000   0.000000
    40  H    0.000000   0.000000   0.000000   0.000000   0.000000   0.000000
    41  C    0.000000   0.000000   0.000000   0.000000   0.000000   0.000000
    42  H    0.000000   0.000000   0.000000   0.000000   0.000000   0.000000
    43  H    0.000000   0.000000   0.000000   0.000000   0.000000   0.000000
    44  H    0.000000   0.000000   0.000000   0.000000   0.000000   0.000000
              31         32         33         34         35         36
     1  C    0.000000   0.000000   0.000000   0.000000   0.000000   0.000000
     2  H    0.000000   0.000000   0.000000   0.000000   0.000000   0.000000
     3  C    0.000000   0.000000   0.000000   0.000000   0.000000   0.000000
     4  H    0.000000   0.000000   0.000000  -0.000000  -0.000000   0.000000
     5  C    0.000000   0.000000  -0.000000  -0.000000  -0.000000   0.000000
     6  H    0.000000   0.000000   0.000000  -0.000000  -0.000000   0.000000
     7  C    0.000000   0.000000   0.000000   0.000000   0.000000   0.000000
     8  H    0.000000   0.000000   0.000000   0.000000   0.000000   0.000000
     9  C    0.000000   0.000000   0.000000   0.000000   0.000000   0.000000
    10  H    0.000000   0.000000   0.000000   0.000000   0.000000   0.000000
    11  N    0.000000   0.000000   0.000000   0.000000   0.000000   0.000000
    12  C   -0.000000   0.000000   0.000000  -0.000000  -0.000000   0.000000
    13  H   -0.000000   0.000000   0.000000  -0.000000  -0.000000   0.000000
    14  C    0.000000   0.000000  -0.000000   0.000000   0.000000   0.000000
    15  H    0.000000   0.000000   0.000000   0.000000   0.000000  -0.000000
    16  C    0.000000   0.000000   0.000000   0.000000   0.000000  -0.000000
    17  H   -0.000000   0.000000   0.000000   0.000000   0.000000  -0.000000
    18  C   -0.000000   0.000000   0.000000  -0.000000  -0.000000   0.000000
    19  H   -0.000000   0.000000  -0.000000  -0.000000  -0.000000   0.000000
    20  C   -0.000000   0.000000   0.000001  -0.000012  -0.000012  -0.000000
    21  H   -0.000000   0.000000  -0.000003  -0.000001  -0.000001   0.000000
    22  C    0.000003  -0.000008   0.000211   0.000094   0.000103  -0.000011
    23  H    0.000000  -0.000001   0.000013  -0.000001  -0.000001   0.000000
    24  C   -0.000137   0.000328  -0.004153   0.003671   0.003751   0.000146
    25  H    0.000001   0.000000   0.005817   0.000314   0.000311   0.000043
    26  N   -0.041166  -0.032380   0.292167  -0.038695  -0.038460  -0.032062
    27  C    0.000628  -0.002902  -0.047654  -0.004287  -0.004396   0.004360
    28  H    0.000196   0.006156   0.004759  -0.000093  -0.000089  -0.000172
    29  C    0.388432   0.388550  -0.043032   0.002131   0.002213  -0.002827
    30  H   -0.039557  -0.026197  -0.001635   0.001288  -0.000401   0.000916
    31  H    0.566047  -0.026080  -0.001747  -0.000412   0.001225   0.001108
    32  H   -0.026080   0.547174   0.004140  -0.000200  -0.000201   0.000239
    33  C   -0.001747   0.004140   4.822067   0.386109   0.385977   0.391236
    34  H   -0.000412  -0.000200   0.386109   0.563688  -0.039248  -0.026378
    35  H    0.001225  -0.000201   0.385977  -0.039248   0.563337  -0.026102
    36  H    0.001108   0.000239   0.391236  -0.026378  -0.026102   0.544028
    37  C    0.000000   0.000000   0.000000   0.000000   0.000000   0.000000
    38  H    0.000000   0.000000   0.000000   0.000000   0.000000   0.000000
    39  H    0.000000   0.000000   0.000000   0.000000   0.000000   0.000000
    40  H    0.000000   0.000000   0.000000   0.000000   0.000000   0.000000
    41  C    0.000000   0.000000   0.000000   0.000000   0.000000   0.000000
    42  H    0.000000   0.000000   0.000000   0.000000   0.000000   0.000000
    43  H    0.000000   0.000000   0.000000   0.000000   0.000000   0.000000
    44  H    0.000000   0.000000   0.000000   0.000000   0.000000   0.000000
              37         38         39         40         41         42
     1  C   -0.000061   0.000003  -0.000008   0.000003   0.000211   0.000099
     2  H   -0.000006   0.000000  -0.000001   0.000000   0.000013  -0.000001
     3  C    0.000001  -0.000000   0.000000  -0.000000   0.000001  -0.000012
     4  H    0.000000  -0.000000   0.000000  -0.000000  -0.000003  -0.000001
     5  C   -0.000000  -0.000000   0.000000  -0.000000   0.000000  -0.000000
     6  H    0.000000  -0.000000   0.000000  -0.000000  -0.000000  -0.000000
     7  C    0.004417  -0.000135   0.000328  -0.000135  -0.004152   0.003710
     8  H   -0.000012   0.000001   0.000000   0.000001   0.005817   0.000313
     9  C   -0.037649   0.000602  -0.002902   0.000600  -0.047651  -0.004339
    10  H   -0.007521   0.000193   0.006157   0.000193   0.004758  -0.000091
    11  N    0.301870  -0.041227  -0.032381  -0.041233   0.292164  -0.038582
    12  C    0.000000   0.000000   0.000000   0.000000   0.000000   0.000000
    13  H    0.000000  -0.000000   0.000000  -0.000000   0.000000   0.000000
    14  C   -0.000000   0.000000   0.000000   0.000000  -0.000000   0.000000
    15  H    0.000000   0.000000   0.000000   0.000000   0.000000   0.000000
    16  C    0.000000  -0.000000   0.000000  -0.000000   0.000000  -0.000000
    17  H    0.000000  -0.000000   0.000000  -0.000000   0.000000  -0.000000
    18  C   -0.000000   0.000000   0.000000   0.000000  -0.000000  -0.000000
    19  H   -0.000000   0.000000   0.000000   0.000000   0.000000  -0.000000
    20  C    0.000000   0.000000   0.000000   0.000000   0.000000   0.000000
    21  H    0.000000   0.000000   0.000000   0.000000   0.000000  -0.000000
    22  C    0.000000   0.000000   0.000000   0.000000   0.000000   0.000000
    23  H    0.000000   0.000000   0.000000   0.000000   0.000000   0.000000
    24  C    0.000000   0.000000   0.000000   0.000000   0.000000   0.000000
    25  H    0.000000   0.000000   0.000000   0.000000   0.000000   0.000000
    26  N    0.000000   0.000000   0.000000   0.000000   0.000000   0.000000
    27  C    0.000000   0.000000   0.000000   0.000000   0.000000   0.000000
    28  H    0.000000   0.000000   0.000000   0.000000   0.000000   0.000000
    29  C    0.000000   0.000000   0.000000   0.000000   0.000000   0.000000
    30  H    0.000000   0.000000   0.000000   0.000000   0.000000   0.000000
    31  H    0.000000   0.000000   0.000000   0.000000   0.000000   0.000000
    32  H    0.000000   0.000000   0.000000   0.000000   0.000000   0.000000
    33  C    0.000000   0.000000   0.000000   0.000000   0.000000   0.000000
    34  H    0.000000   0.000000   0.000000   0.000000   0.000000   0.000000
    35  H    0.000000   0.000000   0.000000   0.000000   0.000000   0.000000
    36  H    0.000000   0.000000   0.000000   0.000000   0.000000   0.000000
    37  C    4.805824   0.388434   0.388550   0.388436  -0.043032   0.002171
    38  H    0.388434   0.566170  -0.026137  -0.039557  -0.001693  -0.000407
    39  H    0.388550  -0.026137   0.547178  -0.026141   0.004140  -0.000201
    40  H    0.388436  -0.039557  -0.026141   0.566174  -0.001689   0.001257
    41  C   -0.043032  -0.001693   0.004140  -0.001689   4.822066   0.386045
    42  H    0.002171  -0.000407  -0.000201   0.001257   0.386045   0.563518
    43  H    0.002173   0.001256  -0.000200  -0.000406   0.386041  -0.039248
    44  H   -0.002827   0.001014   0.000239   0.001009   0.391239  -0.026243
              43         44
     1  C    0.000099  -0.000011
     2  H   -0.000001   0.000000
     3  C   -0.000012  -0.000000
     4  H   -0.000001   0.000000
     5  C   -0.000000   0.000000
     6  H   -0.000000   0.000000
     7  C    0.003712   0.000146
     8  H    0.000313   0.000043
     9  C   -0.004341   0.004359
    10  H   -0.000091  -0.000172
    11  N   -0.038577  -0.032060
    12  C    0.000000  -0.000000
    13  H    0.000000  -0.000000
    14  C    0.000000   0.000000
    15  H    0.000000  -0.000000
    16  C   -0.000000   0.000000
    17  H   -0.000000   0.000000
    18  C   -0.000000   0.000000
    19  H   -0.000000   0.000000
    20  C    0.000000   0.000000
    21  H   -0.000000   0.000000
    22  C    0.000000   0.000000
    23  H    0.000000   0.000000
    24  C    0.000000   0.000000
    25  H    0.000000   0.000000
    26  N    0.000000   0.000000
    27  C    0.000000   0.000000
    28  H    0.000000   0.000000
    29  C    0.000000   0.000000
    30  H    0.000000   0.000000
    31  H    0.000000   0.000000
    32  H    0.000000   0.000000
    33  C    0.000000   0.000000
    34  H    0.000000   0.000000
    35  H    0.000000   0.000000
    36  H    0.000000   0.000000
    37  C    0.002173  -0.002827
    38  H    0.001256   0.001014
    39  H   -0.000200   0.000239
    40  H   -0.000406   0.001009
    41  C    0.386041   0.391239
    42  H   -0.039248  -0.026243
    43  H    0.563511  -0.026237
    44  H   -0.026237   0.544024
 Mulliken charges:
               1
     1  C   -0.045248
     2  H    0.097337
     3  C   -0.097523
     4  H    0.094779
     5  C   -0.052633
     6  H    0.097788
     7  C   -0.126877
     8  H    0.100884
     9  C    0.160048
    10  H    0.127568
    11  N   -0.394550
    12  C   -0.089707
    13  H    0.096823
    14  C   -0.053447
    15  H    0.098436
    16  C   -0.089706
    17  H    0.096823
    18  C   -0.052631
    19  H    0.097788
    20  C   -0.097520
    21  H    0.094780
    22  C   -0.045250
    23  H    0.097337
    24  C   -0.126884
    25  H    0.100885
    26  N   -0.394550
    27  C    0.160059
    28  H    0.127571
    29  C   -0.190770
    30  H    0.151516
    31  H    0.151458
    32  H    0.141382
    33  C   -0.194275
    34  H    0.152032
    35  H    0.151993
    36  H    0.145477
    37  C   -0.190769
    38  H    0.151484
    39  H    0.141378
    40  H    0.151489
    41  C   -0.194276
    42  H    0.152012
    43  H    0.152011
    44  H    0.145478
 Sum of Mulliken charges =   1.00000
 Mulliken charges with hydrogens summed into heavy atoms:
               1
     1  C    0.052089
     3  C   -0.002744
     5  C    0.045155
     7  C   -0.025993
     9  C    0.287615
    11  N   -0.394550
    12  C    0.007117
    14  C    0.044988
    16  C    0.007118
    18  C    0.045157
    20  C   -0.002740
    22  C    0.052088
    24  C   -0.025998
    26  N   -0.394550
    27  C    0.287631
    29  C    0.253586
    33  C    0.255227
    37  C    0.253582
    41  C    0.255224
 Electronic spatial extent (au):  <R**2>=          22245.7861
 Charge=              1.0000 electrons
 Dipole moment (field-independent basis, Debye):
    X=              0.0007    Y=             -1.2879    Z=             -0.0026  Tot=              1.2879
 Quadrupole moment (field-independent basis, Debye-Ang):
   XX=            211.3293   YY=            -96.0566   ZZ=           -120.2463
   XY=             -0.0003   XZ=             -0.0296   YZ=             -0.0071
 Traceless Quadrupole moment (field-independent basis, Debye-Ang):
   XX=            212.9872   YY=            -94.3987   ZZ=           -118.5885
   XY=             -0.0003   XZ=             -0.0296   YZ=             -0.0071
 Octapole moment (field-independent basis, Debye-Ang**2):
  XXX=              0.0310  YYY=             -4.8738  ZZZ=             -0.0284  XYY=              0.0025
  XXY=            -76.2998  XXZ=             -0.2371  XZZ=              0.0007  YZZ=              0.1587
  YYZ=              0.0046  XYZ=              0.1175
 Hexadecapole moment (field-independent basis, Debye-Ang**3):
 XXXX=           -896.0607 YYYY=           -537.7608 ZZZZ=           -147.0238 XXXY=             -0.0526
 XXXZ=             -1.9165 YYYX=             -0.0023 YYYZ=             -0.0208 ZZZX=             -0.2649
 ZZZY=             -0.0138 XXYY=          -4073.7373 XXZZ=          -4938.9286 YYZZ=           -123.1751
 XXYZ=              0.2077 YYXZ=              0.0020 ZZXY=             -0.0004
 N-N= 1.125891242249D+03 E-N=-4.023539213592D+03  KE= 7.644459175638D+02
 No NMR shielding tensors so no spin-rotation constants.
 Leave Link  601 at Tue Jun  8 18:51:39 2021, MaxMem=    33554432 cpu:         0.4
 (Enter /opt/app/gaussian09/e01/g09/l9999.exe)
 1\1\GINC-NB-0457\FOpt\RB3LYP\6-31G(d,p)\C17H25N2(1+)\ROOT\08-Jun-2021\
 0\\#p opt b3lyp/6-31g(d,p) geom=connectivity scf=tight\\opt\\1,1\C,-2.
 3838763069,0.2622731267,-0.3415054136\H,-3.4250448575,0.4103246711,-0.
 0510977587\C,-1.6339112532,1.3964032571,-0.617102254\H,-0.5920248583,1
 .2776063044,-0.9093524939\C,-2.1601840595,2.6915116879,-0.5355796716\H
 ,-3.2059503025,2.7894802054,-0.2411197222\C,-1.9162046689,-1.060760386
 5,-0.4047811411\H,-0.8840584719,-1.2357493222,-0.6911759383\C,-2.75090
 78912,-2.1259511219,-0.1086817557\H,-3.7797705237,-1.9174440377,0.1749
 890268\N,-2.4305180722,-3.4255011488,-0.1309978657\C,-1.4560215068,3.8
 625748483,-0.800069865\H,-0.4109379752,3.7866267431,-1.0955446359\C,-2
 .0301546497,5.1314261682,-0.7034260204\H,-3.07809764,5.1873490148,-0.4
 060608994\C,-1.3687452227,6.3343302568,-0.9573856024\H,-0.3222457642,6
 .2986654739,-1.2554445975\C,-1.9877075236,7.5760085053,-0.8464151193\H
 ,-3.0364294435,7.5898052206,-0.5465438546\C,-1.3721431912,8.8101692755
 ,-1.0889350297\H,-0.3258222329,8.817543849,-1.3892782382\C,-2.03934768
 45,10.0199231715,-0.9624343439\H,-3.0870180668,9.9833138982,-0.6602201
 171\C,-1.4801590233,11.2881640875,-1.1904317497\H,-0.4395100572,11.352
 61289,-1.4918642473\N,-1.826042254,13.6987143663,-1.2210772369\C,-2.23
 65672859,12.4382553524,-1.0349232079\H,-3.2759716804,12.3401804512,-0.
 7307593624\C,-2.724394744,14.8321952508,-1.0183639454\H,-2.3375604147,
 15.4929264843,-0.235270157\H,-2.8283096409,15.4089892943,-1.9434658243
 \H,-3.7095002744,14.4733705634,-0.7176827277\C,-0.4532447746,13.988082
 7086,-1.6311939123\H,0.2599496697,13.6233601796,-0.8842412729\H,-0.229
 1774054,13.5166543564,-2.5939353994\H,-0.3308752766,15.0659455373,-1.7
 336798796\C,-3.4070185492,-4.4585573873,0.2038846984\H,-3.0656998473,-
 5.0443458696,1.0639557535\H,-4.3628707324,-3.9961626708,0.4531595997\H
 ,-3.5551945115,-5.1353865556,-0.6442394685\C,-1.0829505978,-3.86016273
 65,-0.4937872918\H,-0.8326693472,-3.5391651698,-1.5105374856\H,-0.3426
 351436,-3.4473949767,0.1997664702\H,-1.0344894224,-4.9477952565,-0.449
 3053316\\Version=ES64L-G09RevE.01\State=1-A\HF=-772.1494276\RMSD=8.633
 e-09\RMSF=2.587e-06\Dipole=-0.4864009,0.0263127,0.13947\Quadrupole=-71
 .2653287,157.1032918,-85.8379631,7.7820204,-5.2683347,-15.3164383\PG=C
 01 [X(C17H25N2)]\\@


 THE MORE PROGRESS PHYSICAL SCIENCES MAKE, THE MORE THEY TEND TO ENTER
 THE DOMAIN OF MATHEMATICS, WHICH IS A KIND OF CENTRE TO WHICH THEY ALL
 CONVERGE.  WE MAY EVEN JUDGE THE DEGREE OF PERFECTION TO WHICH A 
 SCIENCE HAS ARRIVED BY THE FACILITY WITH WHICH IT MAY BE SUBMITTED
 TO CALCULATION.

                               -- ADOLPHE QUETELET, 1796-1874
 Job cpu time:       0 days  2 hours 29 minutes 20.1 seconds.
 File lengths (MBytes):  RWF=    105 Int=      0 D2E=      0 Chk=     14 Scr=      1
 Normal termination of Gaussian 09 at Tue Jun  8 18:51:43 2021.
