 Entering Gaussian System, Link 0=/opt/app/gaussian09/e01/g09/g09.exec
 Input=4_pp_td.gjf
 Output=4_pp_td.log
 Initial command:
 /opt/app/gaussian09/e01/g09/l1.exe "./Gau-72800.inp" -scrdir="./"
 Entering Link 1 = /opt/app/gaussian09/e01/g09/l1.exe PID=     72804.
  
 Copyright (c) 1988,1990,1992,1993,1995,1998,2003,2009,2015,
            Gaussian, Inc.  All Rights Reserved.
  
 This is part of the Gaussian(R) 09 program.  It is based on
 the Gaussian(R) 03 system (copyright 2003, Gaussian, Inc.),
 the Gaussian(R) 98 system (copyright 1998, Gaussian, Inc.),
 the Gaussian(R) 94 system (copyright 1995, Gaussian, Inc.),
 the Gaussian 92(TM) system (copyright 1992, Gaussian, Inc.),
 the Gaussian 90(TM) system (copyright 1990, Gaussian, Inc.),
 the Gaussian 88(TM) system (copyright 1988, Gaussian, Inc.),
 the Gaussian 86(TM) system (copyright 1986, Carnegie Mellon
 University), and the Gaussian 82(TM) system (copyright 1983,
 Carnegie Mellon University). Gaussian is a federally registered
 trademark of Gaussian, Inc.
  
 This software contains proprietary and confidential information,
 including trade secrets, belonging to Gaussian, Inc.
  
 This software is provided under written license and may be
 used, copied, transmitted, or stored only in accord with that
 written license.
  
 The following legend is applicable only to US Government
 contracts under FAR:
  
                    RESTRICTED RIGHTS LEGEND
  
 Use, reproduction and disclosure by the US Government is
 subject to restrictions as set forth in subparagraphs (a)
 and (c) of the Commercial Computer Software - Restricted
 Rights clause in FAR 52.227-19.
  
 Gaussian, Inc.
 340 Quinnipiac St., Bldg. 40, Wallingford CT 06492
  
  
 ---------------------------------------------------------------
 Warning -- This program may not be used in any manner that
 competes with the business of Gaussian, Inc. or will provide
 assistance to any competitor of Gaussian, Inc.  The licensee
 of this program is prohibited from giving any competitor of
 Gaussian, Inc. access to this program.  By using this program,
 the user acknowledges that Gaussian, Inc. is engaged in the
 business of creating and licensing software in the field of
 computational chemistry and represents and warrants to the
 licensee that it is not a competitor of Gaussian, Inc. and that
 it will not use this program in any manner prohibited above.
 ---------------------------------------------------------------
  

 Cite this work as:
 Gaussian 09, Revision E.01,
 M. J. Frisch, G. W. Trucks, H. B. Schlegel, G. E. Scuseria, 
 M. A. Robb, J. R. Cheeseman, G. Scalmani, V. Barone, B. Mennucci, 
 G. A. Petersson, H. Nakatsuji, M. Caricato, X. Li, H. P. Hratchian, 
 A. F. Izmaylov, J. Bloino, G. Zheng, J. L. Sonnenberg, M. Hada, 
 M. Ehara, K. Toyota, R. Fukuda, J. Hasegawa, M. Ishida, T. Nakajima, 
 Y. Honda, O. Kitao, H. Nakai, T. Vreven, J. A. Montgomery, Jr., 
 J. E. Peralta, F. Ogliaro, M. Bearpark, J. J. Heyd, E. Brothers, 
 K. N. Kudin, V. N. Staroverov, T. Keith, R. Kobayashi, J. Normand, 
 K. Raghavachari, A. Rendell, J. C. Burant, S. S. Iyengar, J. Tomasi, 
 M. Cossi, N. Rega, J. M. Millam, M. Klene, J. E. Knox, J. B. Cross, 
 V. Bakken, C. Adamo, J. Jaramillo, R. Gomperts, R. E. Stratmann, 
 O. Yazyev, A. J. Austin, R. Cammi, C. Pomelli, J. W. Ochterski, 
 R. L. Martin, K. Morokuma, V. G. Zakrzewski, G. A. Voth, 
 P. Salvador, J. J. Dannenberg, S. Dapprich, A. D. Daniels, 
 O. Farkas, J. B. Foresman, J. V. Ortiz, J. Cioslowski, 
 and D. J. Fox, Gaussian, Inc., Wallingford CT, 2013.
 
 ******************************************
 Gaussian 09:  ES64L-G09RevE.01 30-Nov-2015
                 9-Jun-2021 
 ******************************************
 %chk=4_pp_td.chk
 --------------------------------------------------
 #p td(NStates=10) b3lyp/6-31g(d,p) nosymm pop=full
 --------------------------------------------------
 1/38=1/1;
 2/12=2,15=1,17=6,18=5,40=1/2;
 3/5=1,6=6,7=101,11=9,16=1,25=1,30=1,74=-5/1,2,8,3;
 4//1;
 5/5=2,38=5/2;
 8/6=1,10=2,108=10/1;
 9/41=10,42=1,70=2/14;
 6/7=3/1;
 99/5=1,9=1/99;
 Leave Link    1 at Wed Jun  9 00:25:38 2021, MaxMem=           0 cpu:         0.1
 (Enter /opt/app/gaussian09/e01/g09/l101.exe)
 -------------------
 Title Card Required
 -------------------
 Symbolic Z-matrix:
 Charge =  1 Multiplicity = 1
 C                    -2.4431   -0.29806  -0.00007 
 H                    -2.3863   -1.38758  -0.00023 
 C                    -1.24033   0.40072  -0.00002 
 H                    -1.26577   1.48874   0.00013 
 C                    -0.00003  -0.23996  -0.00015 
 H                    -0.00007  -1.33093  -0.0003 
 C                    -3.71936   0.27876   0.00005 
 H                    -3.80565   1.36048   0.0002 
 C                    -4.85789  -0.51644  -0.00003 
 H                    -4.73679  -1.59714  -0.0002 
 N                    -6.12461  -0.0963    0.00008 
 C                     1.24031   0.40066  -0.0001 
 H                     1.26581   1.48868   0.00003 
 C                     2.44305  -0.29817  -0.00024 
 H                     2.3862   -1.38769  -0.00044 
 C                     3.71936   0.27861  -0.00022 
 H                     3.80569   1.36035   0.00002 
 N                     6.12463  -0.09628  -0.00021 
 C                     4.8579   -0.51653  -0.00033 
 H                     4.73695  -1.59725  -0.00022 
 C                     6.44582   1.33158  -0.00009 
 H                     6.03661   1.81942  -0.89067 
 H                     6.03868   1.81893   0.89174 
 H                     7.52845   1.45278  -0.00135 
 C                     7.24284  -1.03822   0.00071 
 H                     7.86429  -0.8914   -0.88853 
 H                     7.86276  -0.89159   0.89107 
 H                     6.86482  -2.06115   0.00028 
 C                    -7.24277  -1.03834  -0.00005 
 H                    -7.86348  -0.8915   -0.88981 
 H                    -6.86465  -2.06122  -0.00023 
 H                    -7.86345  -0.89179   0.88978 
 C                    -6.44586   1.33155   0.00031 
 H                    -6.03764   1.81901   0.89156 
 H                    -6.03775   1.81928  -0.89085 
 H                    -7.5285    1.4527    0.0004 
 
 NAtoms=     36 NQM=       36 NQMF=       0 NMMI=      0 NMMIF=      0
                NMic=       0 NMicF=      0.
                    Isotopes and Nuclear Properties:
 (Nuclear quadrupole moments (NQMom) in fm**2, nuclear magnetic moments (NMagM)
  in nuclear magnetons)

  Atom         1           2           3           4           5           6           7           8           9          10
 IAtWgt=          12           1          12           1          12           1          12           1          12           1
 AtmWgt=  12.0000000   1.0078250  12.0000000   1.0078250  12.0000000   1.0078250  12.0000000   1.0078250  12.0000000   1.0078250
 NucSpn=           0           1           0           1           0           1           0           1           0           1
 AtZEff=   0.0000000   0.0000000   0.0000000   0.0000000   0.0000000   0.0000000   0.0000000   0.0000000   0.0000000   0.0000000
 NQMom=    0.0000000   0.0000000   0.0000000   0.0000000   0.0000000   0.0000000   0.0000000   0.0000000   0.0000000   0.0000000
 NMagM=    0.0000000   2.7928460   0.0000000   2.7928460   0.0000000   2.7928460   0.0000000   2.7928460   0.0000000   2.7928460
 AtZNuc=   6.0000000   1.0000000   6.0000000   1.0000000   6.0000000   1.0000000   6.0000000   1.0000000   6.0000000   1.0000000

  Atom        11          12          13          14          15          16          17          18          19          20
 IAtWgt=          14          12           1          12           1          12           1          14          12           1
 AtmWgt=  14.0030740  12.0000000   1.0078250  12.0000000   1.0078250  12.0000000   1.0078250  14.0030740  12.0000000   1.0078250
 NucSpn=           2           0           1           0           1           0           1           2           0           1
 AtZEff=   0.0000000   0.0000000   0.0000000   0.0000000   0.0000000   0.0000000   0.0000000   0.0000000   0.0000000   0.0000000
 NQMom=    2.0440000   0.0000000   0.0000000   0.0000000   0.0000000   0.0000000   0.0000000   2.0440000   0.0000000   0.0000000
 NMagM=    0.4037610   0.0000000   2.7928460   0.0000000   2.7928460   0.0000000   2.7928460   0.4037610   0.0000000   2.7928460
 AtZNuc=   7.0000000   6.0000000   1.0000000   6.0000000   1.0000000   6.0000000   1.0000000   7.0000000   6.0000000   1.0000000

  Atom        21          22          23          24          25          26          27          28          29          30
 IAtWgt=          12           1           1           1          12           1           1           1          12           1
 AtmWgt=  12.0000000   1.0078250   1.0078250   1.0078250  12.0000000   1.0078250   1.0078250   1.0078250  12.0000000   1.0078250
 NucSpn=           0           1           1           1           0           1           1           1           0           1
 AtZEff=   0.0000000   0.0000000   0.0000000   0.0000000   0.0000000   0.0000000   0.0000000   0.0000000   0.0000000   0.0000000
 NQMom=    0.0000000   0.0000000   0.0000000   0.0000000   0.0000000   0.0000000   0.0000000   0.0000000   0.0000000   0.0000000
 NMagM=    0.0000000   2.7928460   2.7928460   2.7928460   0.0000000   2.7928460   2.7928460   2.7928460   0.0000000   2.7928460
 AtZNuc=   6.0000000   1.0000000   1.0000000   1.0000000   6.0000000   1.0000000   1.0000000   1.0000000   6.0000000   1.0000000

  Atom        31          32          33          34          35          36
 IAtWgt=           1           1          12           1           1           1
 AtmWgt=   1.0078250   1.0078250  12.0000000   1.0078250   1.0078250   1.0078250
 NucSpn=           1           1           0           1           1           1
 AtZEff=   0.0000000   0.0000000   0.0000000   0.0000000   0.0000000   0.0000000
 NQMom=    0.0000000   0.0000000   0.0000000   0.0000000   0.0000000   0.0000000
 NMagM=    2.7928460   2.7928460   0.0000000   2.7928460   2.7928460   2.7928460
 AtZNuc=   1.0000000   1.0000000   6.0000000   1.0000000   1.0000000   1.0000000
 Leave Link  101 at Wed Jun  9 00:25:38 2021, MaxMem=    33554432 cpu:         0.1
 (Enter /opt/app/gaussian09/e01/g09/l202.exe)
                          Input orientation:                          
 ---------------------------------------------------------------------
 Center     Atomic      Atomic             Coordinates (Angstroms)
 Number     Number       Type             X           Y           Z
 ---------------------------------------------------------------------
      1          6           0       -2.443095   -0.298063   -0.000075
      2          1           0       -2.386304   -1.387580   -0.000227
      3          6           0       -1.240329    0.400718   -0.000022
      4          1           0       -1.265775    1.488737    0.000126
      5          6           0       -0.000026   -0.239958   -0.000152
      6          1           0       -0.000066   -1.330926   -0.000297
      7          6           0       -3.719358    0.278757    0.000048
      8          1           0       -3.805648    1.360481    0.000204
      9          6           0       -4.857886   -0.516439   -0.000032
     10          1           0       -4.736792   -1.597138   -0.000199
     11          7           0       -6.124612   -0.096296    0.000077
     12          6           0        1.240306    0.400660   -0.000104
     13          1           0        1.265807    1.488684    0.000027
     14          6           0        2.443053   -0.298169   -0.000245
     15          1           0        2.386202   -1.387685   -0.000438
     16          6           0        3.719356    0.278612   -0.000216
     17          1           0        3.805688    1.360345    0.000021
     18          7           0        6.124629   -0.096278   -0.000209
     19          6           0        4.857901   -0.516532   -0.000327
     20          1           0        4.736945   -1.597255   -0.000217
     21          6           0        6.445821    1.331578   -0.000087
     22          1           0        6.036611    1.819416   -0.890670
     23          1           0        6.038679    1.818926    0.891737
     24          1           0        7.528455    1.452776   -0.001345
     25          6           0        7.242837   -1.038223    0.000711
     26          1           0        7.864288   -0.891403   -0.888533
     27          1           0        7.862761   -0.891589    0.891066
     28          1           0        6.864820   -2.061150    0.000284
     29          6           0       -7.242775   -1.038340   -0.000053
     30          1           0       -7.863482   -0.891497   -0.889814
     31          1           0       -6.864645   -2.061216   -0.000228
     32          1           0       -7.863447   -0.891787    0.889781
     33          6           0       -6.445859    1.331548    0.000308
     34          1           0       -6.037637    1.819012    0.891558
     35          1           0       -6.037753    1.819277   -0.890850
     36          1           0       -7.528500    1.452701    0.000397
 ---------------------------------------------------------------------
                    Distance matrix (angstroms):
                    1          2          3          4          5
     1  C    0.000000
     2  H    1.090996   0.000000
     3  C    1.391022   2.123974   0.000000
     4  H    2.139799   3.086873   1.088317   0.000000
     5  C    2.443760   2.647897   1.396000   2.142547   0.000000
     6  H    2.652395   2.386910   2.129987   3.090715   1.090969
     7  C    1.400560   2.133943   2.482028   2.735712   3.755329
     8  H    2.146466   3.092955   2.738979   2.543109   4.128457
     9  C    2.424644   2.620611   3.732009   4.113878   4.865721
    10  H    2.636028   2.359812   4.026994   4.644414   4.927362
    11  N    3.687041   3.955042   4.909505   5.110834   6.126270
    12  C    3.749088   4.043526   2.480635   2.732097   1.395999
    13  H    4.116846   4.648743   2.732104   2.531582   2.142554
    14  C    4.886148   4.950707   3.749099   4.116848   2.443772
    15  H    4.950696   4.772506   4.043527   4.648735   2.647898
    16  C    6.189375   6.328924   4.961188   5.129906   3.755358
    17  H    6.465107   6.774353   5.136455   5.073088   4.128490
    18  N    8.570100   8.608335   7.381707   7.558461   6.126340
    19  C    7.304265   7.296385   6.166828   6.443642   4.865794
    20  H    7.296635   7.126334   6.302357   6.749518   4.927591
    21  C    9.037066   9.241225   7.742312   7.713197   6.634656
    22  H    8.785346   9.056667   7.467250   7.363947   6.440111
    23  H    8.787347   9.058566   7.469304   7.366074   6.442083
    24  H   10.124093  10.313586   8.831670   8.794303   7.716435
    25  C    9.714172   9.635477   8.604340   8.875923   7.286721
    26  H   10.362605  10.300967   9.238673   9.476964   7.941098
    27  H   10.361326  10.299696   9.237442   9.475753   7.939919
    28  H    9.473424   9.275612   8.470786   8.871768   7.102313
    29  C    4.856432   4.869012   6.172540   6.489272   7.286620
    30  H    5.524889   5.571081   6.806446   7.070166   7.940400
    31  H    4.760127   4.528723   6.139548   6.629443   7.102111
    32  H    5.524904   5.571088   6.806468   7.070195   7.940419
    33  C    4.321777   4.886067   5.288099   5.182469   6.634636
    34  H    4.265881   4.940622   5.081401   4.865634   6.441060
    35  H    4.265932   4.940670   5.081453   4.865683   6.441113
    36  H    5.378338   5.874468   6.375560   6.262829   7.716412
                    6          7          8          9         10
     6  H    0.000000
     7  C    4.052680   0.000000
     8  H    4.661129   1.085160   0.000000
     9  C    4.925627   1.388734   2.151752   0.000000
    10  H    4.744201   2.134046   3.100732   1.087461   0.000000
    11  N    6.247749   2.434319   2.738575   1.334584   2.044154
    12  C    2.130004   4.961162   5.136429   6.166767   6.302135
    13  H    3.090735   5.129893   5.073075   6.443612   6.749333
    14  C    2.652436   6.189358   6.465089   7.304200   7.296403
    15  H    2.386943   6.328894   6.774320   7.296292   7.126073
    16  C    4.052742   7.438714   7.602376   8.614011   8.661690
    17  H    4.661192   7.602378   7.611336   8.864527   9.039949
    18  N    6.247899   9.851128  10.036560  10.990548  10.964627
    19  C    4.925758   8.614051   8.864551   9.715787   9.655354
    20  H    4.744492   8.661898   9.040138   9.655513   9.473737
    21  C    6.974123  10.219555  10.251509  11.453774  11.559767
    22  H    6.867234   9.916953   9.893146  11.177635  11.337196
    23  H    6.869042   9.918998   9.895240  11.179638  11.339128
    24  H    8.026683  11.308918  11.334478  12.541899  12.638760
    25  C    7.248816  11.041022  11.305875  12.111967  11.992661
    26  H    7.926552  11.676460  11.918399  12.758673  12.652053
    27  H    7.925377  11.675149  11.917098  12.757337  12.650727
    28  H    6.903614  10.839741  11.205643  11.824041  11.610888
    29  C    7.248616   3.761543   4.191442   2.441327   2.567529
    30  H    7.925758   4.397171   4.725416   3.156896   3.326490
    31  H    6.903316   3.920243   4.589714   2.532473   2.177872
    32  H    7.925770   4.397189   4.725441   3.156905   3.326492
    33  C    6.974025   2.922701   2.640370   2.436538   3.390887
    34  H    6.868025   2.922600   2.446741   2.764250   3.762646
    35  H    6.868080   2.922645   2.446787   2.764275   3.762665
    36  H    8.026574   3.985939   3.723995   3.318086   4.134628
                   11         12         13         14         15
    11  N    0.000000
    12  C    7.381665   0.000000
    13  H    7.558469   1.088323   0.000000
    14  C    8.570042   1.391029   2.139801   0.000000
    15  H    8.608231   2.123972   3.086873   1.090999   0.000000
    16  C    9.851104   2.482053   2.735722   1.400581   2.133974
    17  H   10.036566   2.739011   2.543121   2.146496   3.092994
    18  N   12.249240   4.909537   5.110797   3.687108   3.955195
    19  C   10.990550   3.732056   4.113883   2.424702   2.620726
    20  H   10.964775   4.027176   4.644547   2.636203   2.360066
    21  C   12.651269   5.288099   5.182395   4.321832   4.886195
    22  H   12.343368   5.080406   4.864493   4.265054   4.939990
    23  H   12.345395   5.082445   4.866674   4.266879   4.941550
    24  H   13.740664   6.375560   6.262751   5.378394   5.874605
    25  C   13.400594   6.172582   6.489233   4.856502   4.869192
    26  H   14.039628   6.807046   7.070665   5.525467   5.571754
    27  H   14.038267   6.805954   7.069615   5.524475   5.570780
    28  H   13.137198   6.139679   6.629499   4.760265   4.528970
    29  C    1.462099   8.604265   8.875912   9.714067   9.635312
    30  H    2.109009   9.237977   9.476339  10.361855  10.300156
    31  H    2.099657   8.470600   8.871643   9.473203   9.275334
    32  H    2.109011   9.237999   9.476370  10.361875  10.300180
    33  C    1.463537   7.742331   7.713268   9.037076   9.241187
    34  H    2.114405   7.468282   7.365069   8.786345   9.057573
    35  H    2.114407   7.468336   7.365117   8.786400   9.057619
    36  H    2.090525   8.831690   8.794381  10.124100  10.313540
                   16         17         18         19         20
    16  C    0.000000
    17  H    1.085173   0.000000
    18  N    2.434313   2.738473   0.000000
    19  C    1.388719   2.151702   1.334620   0.000000
    20  H    2.134095   3.100748   2.044162   1.087470   0.000000
    21  C    2.922730   2.640289   1.463536   2.436596   3.390917
    22  H    2.921756   2.445628   2.114368   2.763824   3.762403
    23  H    2.923595   2.447795   2.114464   2.764847   3.763029
    24  H    3.985963   3.723914   2.090526   3.318137   4.134636
    25  C    3.761513   4.191316   1.462072   2.441328   2.567492
    26  H    4.397557   4.725689   2.108972   3.157183   3.326802
    27  H    4.396767   4.724935   2.109027   3.156649   3.326120
    28  H    3.920258   4.589653   2.099668   2.532501   2.177854
    29  C   11.040954  11.305849  13.400558  12.111922  11.992751
    30  H   11.675730  11.917724  14.038911  12.757954  12.651492
    31  H   10.839552  11.205494  13.137055  11.823880  11.610864
    32  H   11.675755  11.917738  14.038916  12.757970  12.651468
    33  C   10.219603  10.251588  12.651318  11.453838  11.559974
    34  H    9.918014   9.894254  12.344403  11.178684  11.338331
    35  H    9.918067   9.894322  12.344477  11.178744  11.338432
    36  H   11.308968  11.334565  13.740716  12.541963  12.638963
                   21         22         23         24         25
    21  C    0.000000
    22  H    1.094796   0.000000
    23  H    1.094816   1.782409   0.000000
    24  H    1.089398   1.775084   1.775132   0.000000
    25  C    2.500239   3.227328   3.226023   2.507321   0.000000
    26  H    2.782631   3.269396   3.721303   2.528846   1.094767
    27  H    2.782866   3.722762   3.267134   2.530653   1.094778
    28  H    3.418503   4.066758   4.065979   3.576044   1.090539
    29  C   13.892234  13.612570  13.614561  14.979816  14.485612
    30  H   14.508268  14.161979  14.275518  15.594766  15.133257
    31  H   13.736068  13.501652  13.503588  14.815852  14.144525
    32  H   14.508286  14.273480  14.163936  15.594926  15.133133
    33  C   12.891680  12.523735  12.525809  13.974840  13.892309
    34  H   12.524749  12.205073  12.076316  13.600377  13.613537
    35  H   12.524813  12.074364  12.207286  13.600277  13.613753
    36  H   13.974846  13.599292  13.601359  15.056955  14.979890
                   26         27         28         29         30
    26  H    0.000000
    27  H    1.779600   0.000000
    28  H    1.776863   1.776866   0.000000
    29  C   15.133881  15.132510  14.144623   0.000000
    30  H   15.727771  15.826758  14.801461   1.094768   0.000000
    31  H   14.801994  14.800640  13.729465   1.090531   1.776874
    32  H   15.827952  15.726208  14.801366   1.094767   1.779595
    33  C   14.509028  14.507667  13.736250   2.500289   2.782787
    34  H   14.275104  14.162218  13.502718   3.226730   3.722077
    35  H   14.163847  14.274043  13.502896   3.226697   3.268269
    36  H   15.595607  15.594227  14.816032   2.507374   2.529813
                   31         32         33         34         35
    31  H    0.000000
    32  H    1.776875   0.000000
    33  C    3.418513   2.782793   0.000000
    34  H    4.066373   3.268335   1.094803   0.000000
    35  H    4.066348   3.722052   1.094803   1.782409   0.000000
    36  H    3.576076   2.529786   1.089398   1.775112   1.775113
                   36
    36  H    0.000000
 Symmetry turned off by external request.
 Stoichiometry    C13H21N2(1+)
 Framework group  C1[X(C13H21N2)]
 Deg. of freedom   102
 Full point group                 C1      NOp   1
 Rotational constants (GHZ):      3.6519085      0.0993620      0.0969675
 Leave Link  202 at Wed Jun  9 00:25:38 2021, MaxMem=    33554432 cpu:         0.0
 (Enter /opt/app/gaussian09/e01/g09/l301.exe)
 Standard basis: 6-31G(d,p) (6D, 7F)
 Ernie: Thresh=  0.10000D-02 Tol=  0.10000D-05 Strict=F.
   330 basis functions,   567 primitive gaussians,   330 cartesian basis functions
    56 alpha electrons       56 beta electrons
       nuclear repulsion energy       839.7217278936 Hartrees.
 IExCor=  402 DFT=T Ex+Corr=B3LYP ExCW=0 ScaHFX=  0.200000
 ScaDFX=  0.800000  0.720000  1.000000  0.810000 ScalE2=  1.000000  1.000000
 IRadAn=      0 IRanWt=     -1 IRanGd=            0 ICorTp=0 IEmpDi=  4
 NAtoms=   36 NActive=   36 NUniq=   36 SFac= 1.00D+00 NAtFMM=   60 NAOKFM=F Big=F
 Integral buffers will be    131072 words long.
 Regular integral format.
 Two-electron integral symmetry is turned off.
 Leave Link  301 at Wed Jun  9 00:25:38 2021, MaxMem=    33554432 cpu:         0.0
 (Enter /opt/app/gaussian09/e01/g09/l302.exe)
 NPDir=0 NMtPBC=     1 NCelOv=     1 NCel=       1 NClECP=     1 NCelD=      1
         NCelK=      1 NCelE2=     1 NClLst=     1 CellRange=     0.0.
 One-electron integrals computed using PRISM.
 NBasis=   330 RedAO= T EigKep=  1.21D-03  NBF=   330
 NBsUse=   330 1.00D-06 EigRej= -1.00D+00 NBFU=   330
 Precomputing XC quadrature grid using
 IXCGrd= 4 IRadAn=           0 IRanWt=          -1 IRanGd=           0 AccXCQ= 0.00D+00.
 Generated NRdTot=       0 NPtTot=           0 NUsed=           0 NTot=          32
 NSgBfM=   315   315   315   315   315 MxSgAt=    36 MxSgA2=    36.
 Leave Link  302 at Wed Jun  9 00:25:39 2021, MaxMem=    33554432 cpu:         1.0
 (Enter /opt/app/gaussian09/e01/g09/l308.exe)
 Leave Link  308 at Wed Jun  9 00:25:43 2021, MaxMem=    33554432 cpu:         0.1
 (Enter /opt/app/gaussian09/e01/g09/l303.exe)
 DipDrv:  MaxL=1.
 Leave Link  303 at Wed Jun  9 00:25:43 2021, MaxMem=    33554432 cpu:         0.0
 (Enter /opt/app/gaussian09/e01/g09/l401.exe)
 ExpMin= 1.61D-01 ExpMax= 4.17D+03 ExpMxC= 6.27D+02 IAcc=1 IRadAn=         1 AccDes= 0.00D+00
 Harris functional with IExCor=  402 and IRadAn=       1 diagonalized for initial guess.
 HarFok:  IExCor=  402 AccDes= 0.00D+00 IRadAn=         1 IDoV= 1 UseB2=F ITyADJ=14
 ICtDFT=  3500011 ScaDFX=  1.000000  1.000000  1.000000  1.000000
 FoFCou: FMM=F IPFlag=           0 FMFlag=      100000 FMFlg1=           0
         NFxFlg=           0 DoJE=T BraDBF=F KetDBF=T FulRan=T
         wScrn=  0.000000 ICntrl=     500 IOpCl=  0 I1Cent=   200000004 NGrid=           0
         NMat0=    1 NMatS0=      1 NMatT0=    0 NMatD0=    1 NMtDS0=    0 NMtDT0=    0
 Symmetry not used in FoFCou.
 Harris En= -617.351831749787    
 JPrj=0 DoOrth=F DoCkMO=F.
 Leave Link  401 at Wed Jun  9 00:25:47 2021, MaxMem=    33554432 cpu:         3.7
 (Enter /opt/app/gaussian09/e01/g09/l502.exe)
 Closed shell SCF:
 Using DIIS extrapolation, IDIIS=  1040.
 Two-electron integral symmetry not used.
 IVT=      349282 IEndB=      349282 NGot=    33554432 MDV=    33331021
 LenX=    33331021 LenY=    33221680
 Requested convergence on RMS density matrix=1.00D-08 within 128 cycles.
 Requested convergence on MAX density matrix=1.00D-06.
 Requested convergence on             energy=1.00D-06.
 No special actions if energy rises.
 Fock matrices will be formed incrementally for  20 cycles.
 Integral accuracy reduced to 1.0D-05 until final iterations.

 Cycle   1  Pass 0  IDiag  1:
 FoFJK:  IHMeth= 1 ICntrl=       0 DoSepK=F KAlg= 0 I1Cent=   0 FoldK=F
 IRaf= 560000000 NMat=   1 IRICut=       1 DoRegI=T DoRafI=F ISym2E= 0.
 FoFCou: FMM=F IPFlag=           0 FMFlag=      100000 FMFlg1=           0
         NFxFlg=           0 DoJE=F BraDBF=F KetDBF=F FulRan=T
         wScrn=  0.000000 ICntrl=       0 IOpCl=  0 I1Cent=           0 NGrid=           0
         NMat0=    1 NMatS0=      1 NMatT0=    0 NMatD0=    1 NMtDS0=    0 NMtDT0=    0
 Symmetry not used in FoFCou.
 E= -616.944871209865    
 DIIS: error= 3.46D-02 at cycle   1 NSaved=   1.
 NSaved= 1 IEnMin= 1 EnMin= -616.944871209865     IErMin= 1 ErrMin= 3.46D-02
 ErrMax= 3.46D-02  0.00D+00 EMaxC= 1.00D-01 BMatC= 3.40D-01 BMatP= 3.40D-01
 IDIUse=3 WtCom= 6.54D-01 WtEn= 3.46D-01
 Coeff-Com:  0.100D+01
 Coeff-En:   0.100D+01
 Coeff:      0.100D+01
 Gap=     0.092 Goal=   None    Shift=    0.000
 GapD=    0.092 DampG=0.500 DampE=0.500 DampFc=0.2500 IDamp=-1.
 Damping current iteration by 2.50D-01
 RMSDP=4.32D-03 MaxDP=1.34D-01              OVMax= 4.20D-01

 Cycle   2  Pass 0  IDiag  1:
 RMSU=  1.06D-03    CP:  9.88D-01
 E= -617.077456249044     Delta-E=       -0.132585039179 Rises=F Damp=T
 DIIS: error= 1.79D-02 at cycle   2 NSaved=   2.
 NSaved= 2 IEnMin= 2 EnMin= -617.077456249044     IErMin= 2 ErrMin= 1.79D-02
 ErrMax= 1.79D-02  0.00D+00 EMaxC= 1.00D-01 BMatC= 9.15D-02 BMatP= 3.40D-01
 IDIUse=3 WtCom= 8.21D-01 WtEn= 1.79D-01
 Coeff-Com: -0.719D+00 0.172D+01
 Coeff-En:   0.000D+00 0.100D+01
 Coeff:     -0.590D+00 0.159D+01
 Gap=     0.092 Goal=   None    Shift=    0.000
 RMSDP=1.52D-03 MaxDP=4.96D-02 DE=-1.33D-01 OVMax= 4.23D-01

 Cycle   3  Pass 0  IDiag  1:
 RMSU=  1.43D-03    CP:  9.66D-01  1.34D+00
 E= -617.251039626999     Delta-E=       -0.173583377955 Rises=F Damp=F
 DIIS: error= 1.81D-02 at cycle   3 NSaved=   3.
 NSaved= 3 IEnMin= 3 EnMin= -617.251039626999     IErMin= 2 ErrMin= 1.79D-02
 ErrMax= 1.81D-02  0.00D+00 EMaxC= 1.00D-01 BMatC= 6.14D-02 BMatP= 9.15D-02
 IDIUse=3 WtCom= 8.19D-01 WtEn= 1.81D-01
 Coeff-Com: -0.484D+00 0.104D+01 0.443D+00
 Coeff-En:   0.000D+00 0.000D+00 0.100D+01
 Coeff:     -0.396D+00 0.852D+00 0.544D+00
 Gap=     0.094 Goal=   None    Shift=    0.000
 RMSDP=1.32D-03 MaxDP=6.28D-02 DE=-1.74D-01 OVMax= 1.99D-01

 Cycle   4  Pass 0  IDiag  1:
 RMSU=  6.98D-04    CP:  9.72D-01  1.81D+00  3.07D-01
 E= -617.299299258099     Delta-E=       -0.048259631100 Rises=F Damp=F
 DIIS: error= 1.07D-02 at cycle   4 NSaved=   4.
 NSaved= 4 IEnMin= 4 EnMin= -617.299299258099     IErMin= 4 ErrMin= 1.07D-02
 ErrMax= 1.07D-02  0.00D+00 EMaxC= 1.00D-01 BMatC= 2.05D-02 BMatP= 6.14D-02
 IDIUse=3 WtCom= 8.93D-01 WtEn= 1.07D-01
 Coeff-Com: -0.304D-01 0.107D+00 0.356D+00 0.567D+00
 Coeff-En:   0.000D+00 0.000D+00 0.302D+00 0.698D+00
 Coeff:     -0.271D-01 0.955D-01 0.350D+00 0.581D+00
 Gap=     0.089 Goal=   None    Shift=    0.000
 RMSDP=5.50D-04 MaxDP=2.47D-02 DE=-4.83D-02 OVMax= 9.04D-02

 Cycle   5  Pass 0  IDiag  1:
 RMSU=  1.59D-04    CP:  9.71D-01  1.57D+00  5.67D-01  6.18D-01
 E= -617.323012570608     Delta-E=       -0.023713312509 Rises=F Damp=F
 DIIS: error= 1.80D-03 at cycle   5 NSaved=   5.
 NSaved= 5 IEnMin= 5 EnMin= -617.323012570608     IErMin= 5 ErrMin= 1.80D-03
 ErrMax= 1.80D-03  0.00D+00 EMaxC= 1.00D-01 BMatC= 7.68D-04 BMatP= 2.05D-02
 IDIUse=3 WtCom= 9.82D-01 WtEn= 1.80D-02
 Coeff-Com:  0.127D-01-0.961D-02 0.155D+00 0.317D+00 0.525D+00
 Coeff-En:   0.000D+00 0.000D+00 0.000D+00 0.000D+00 0.100D+01
 Coeff:      0.125D-01-0.943D-02 0.152D+00 0.311D+00 0.534D+00
 Gap=     0.090 Goal=   None    Shift=    0.000
 RMSDP=1.12D-04 MaxDP=6.40D-03 DE=-2.37D-02 OVMax= 1.89D-02

 Cycle   6  Pass 0  IDiag  1:
 RMSU=  5.61D-05    CP:  9.70D-01  1.60D+00  5.52D-01  6.69D-01  4.83D-01
 E= -617.323796553825     Delta-E=       -0.000783983217 Rises=F Damp=F
 DIIS: error= 5.13D-04 at cycle   6 NSaved=   6.
 NSaved= 6 IEnMin= 6 EnMin= -617.323796553825     IErMin= 6 ErrMin= 5.13D-04
 ErrMax= 5.13D-04  0.00D+00 EMaxC= 1.00D-01 BMatC= 7.36D-05 BMatP= 7.68D-04
 IDIUse=3 WtCom= 9.95D-01 WtEn= 5.13D-03
 Coeff-Com:  0.475D-02-0.853D-02 0.200D-01 0.534D-01 0.271D+00 0.659D+00
 Coeff-En:   0.000D+00 0.000D+00 0.000D+00 0.000D+00 0.633D-01 0.937D+00
 Coeff:      0.472D-02-0.849D-02 0.199D-01 0.531D-01 0.270D+00 0.661D+00
 Gap=     0.090 Goal=   None    Shift=    0.000
 RMSDP=3.09D-05 MaxDP=1.89D-03 DE=-7.84D-04 OVMax= 3.20D-03

 Cycle   7  Pass 0  IDiag  1:
 RMSU=  1.59D-05    CP:  9.70D-01  1.59D+00  5.55D-01  6.63D-01  6.01D-01
                    CP:  6.92D-01
 E= -617.323865974153     Delta-E=       -0.000069420328 Rises=F Damp=F
 DIIS: error= 1.83D-04 at cycle   7 NSaved=   7.
 NSaved= 7 IEnMin= 7 EnMin= -617.323865974153     IErMin= 7 ErrMin= 1.83D-04
 ErrMax= 1.83D-04  0.00D+00 EMaxC= 1.00D-01 BMatC= 9.35D-06 BMatP= 7.36D-05
 IDIUse=3 WtCom= 9.98D-01 WtEn= 1.83D-03
 Coeff-Com:  0.191D-02-0.445D-02 0.507D-03 0.869D-02 0.136D+00 0.407D+00
 Coeff-Com:  0.450D+00
 Coeff-En:   0.000D+00 0.000D+00 0.000D+00 0.000D+00 0.000D+00 0.000D+00
 Coeff-En:   0.100D+01
 Coeff:      0.191D-02-0.444D-02 0.506D-03 0.868D-02 0.136D+00 0.406D+00
 Coeff:      0.451D+00
 Gap=     0.090 Goal=   None    Shift=    0.000
 RMSDP=9.96D-06 MaxDP=4.04D-04 DE=-6.94D-05 OVMax= 1.10D-03

 Initial convergence to 1.0D-05 achieved.  Increase integral accuracy.
 Cycle   8  Pass 1  IDiag  1:
 E= -617.323915827020     Delta-E=       -0.000049852867 Rises=F Damp=F
 DIIS: error= 3.69D-05 at cycle   1 NSaved=   1.
 NSaved= 1 IEnMin= 1 EnMin= -617.323915827020     IErMin= 1 ErrMin= 3.69D-05
 ErrMax= 3.69D-05  0.00D+00 EMaxC= 1.00D-01 BMatC= 5.33D-07 BMatP= 5.33D-07
 IDIUse=1 WtCom= 1.00D+00 WtEn= 0.00D+00
 Coeff-Com:  0.100D+01
 Coeff:      0.100D+01
 Gap=     0.090 Goal=   None    Shift=    0.000
 RMSDP=9.96D-06 MaxDP=4.04D-04 DE=-4.99D-05 OVMax= 5.92D-04

 Cycle   9  Pass 1  IDiag  1:
 RMSU=  8.98D-06    CP:  1.00D+00
 E= -617.323915113645     Delta-E=        0.000000713374 Rises=F Damp=F
 DIIS: error= 7.57D-05 at cycle   2 NSaved=   2.
 NSaved= 2 IEnMin= 1 EnMin= -617.323915827020     IErMin= 1 ErrMin= 3.69D-05
 ErrMax= 7.57D-05  0.00D+00 EMaxC= 1.00D-01 BMatC= 1.20D-06 BMatP= 5.33D-07
 IDIUse=1 WtCom= 1.00D+00 WtEn= 0.00D+00
 Coeff-Com:  0.610D+00 0.390D+00
 Coeff:      0.610D+00 0.390D+00
 Gap=     0.090 Goal=   None    Shift=    0.000
 RMSDP=3.87D-06 MaxDP=1.48D-04 DE= 7.13D-07 OVMax= 4.23D-04

 Cycle  10  Pass 1  IDiag  1:
 RMSU=  3.33D-06    CP:  1.00D+00  7.81D-01
 E= -617.323916328469     Delta-E=       -0.000001214823 Rises=F Damp=F
 DIIS: error= 1.56D-05 at cycle   3 NSaved=   3.
 NSaved= 3 IEnMin= 3 EnMin= -617.323916328469     IErMin= 3 ErrMin= 1.56D-05
 ErrMax= 1.56D-05  0.00D+00 EMaxC= 1.00D-01 BMatC= 3.64D-08 BMatP= 5.33D-07
 IDIUse=1 WtCom= 1.00D+00 WtEn= 0.00D+00
 Coeff-Com:  0.987D-01 0.165D+00 0.737D+00
 Coeff:      0.987D-01 0.165D+00 0.737D+00
 Gap=     0.090 Goal=   None    Shift=    0.000
 RMSDP=8.75D-07 MaxDP=4.23D-05 DE=-1.21D-06 OVMax= 1.09D-04

 Cycle  11  Pass 1  IDiag  1:
 RMSU=  4.67D-07    CP:  1.00D+00  8.30D-01  8.20D-01
 E= -617.323916361059     Delta-E=       -0.000000032590 Rises=F Damp=F
 DIIS: error= 6.83D-06 at cycle   4 NSaved=   4.
 NSaved= 4 IEnMin= 4 EnMin= -617.323916361059     IErMin= 4 ErrMin= 6.83D-06
 ErrMax= 6.83D-06  0.00D+00 EMaxC= 1.00D-01 BMatC= 1.01D-08 BMatP= 3.64D-08
 IDIUse=1 WtCom= 1.00D+00 WtEn= 0.00D+00
 Coeff-Com:  0.106D-01 0.688D-01 0.453D+00 0.468D+00
 Coeff:      0.106D-01 0.688D-01 0.453D+00 0.468D+00
 Gap=     0.090 Goal=   None    Shift=    0.000
 RMSDP=3.82D-07 MaxDP=2.22D-05 DE=-3.26D-08 OVMax= 7.21D-05

 Cycle  12  Pass 1  IDiag  1:
 RMSU=  2.05D-07    CP:  1.00D+00  8.21D-01  8.65D-01  4.15D-01
 E= -617.323916369868     Delta-E=       -0.000000008809 Rises=F Damp=F
 DIIS: error= 2.90D-06 at cycle   5 NSaved=   5.
 NSaved= 5 IEnMin= 5 EnMin= -617.323916369868     IErMin= 5 ErrMin= 2.90D-06
 ErrMax= 2.90D-06  0.00D+00 EMaxC= 1.00D-01 BMatC= 1.41D-09 BMatP= 1.01D-08
 IDIUse=1 WtCom= 1.00D+00 WtEn= 0.00D+00
 Coeff-Com: -0.366D-02 0.241D-01 0.208D+00 0.311D+00 0.460D+00
 Coeff:     -0.366D-02 0.241D-01 0.208D+00 0.311D+00 0.460D+00
 Gap=     0.090 Goal=   None    Shift=    0.000
 RMSDP=1.53D-07 MaxDP=7.95D-06 DE=-8.81D-09 OVMax= 2.31D-05

 Cycle  13  Pass 1  IDiag  1:
 RMSU=  7.32D-08    CP:  1.00D+00  8.24D-01  8.59D-01  5.53D-01  4.50D-01
 E= -617.323916371324     Delta-E=       -0.000000001456 Rises=F Damp=F
 DIIS: error= 7.83D-07 at cycle   6 NSaved=   6.
 NSaved= 6 IEnMin= 6 EnMin= -617.323916371324     IErMin= 6 ErrMin= 7.83D-07
 ErrMax= 7.83D-07  0.00D+00 EMaxC= 1.00D-01 BMatC= 9.66D-11 BMatP= 1.41D-09
 IDIUse=1 WtCom= 1.00D+00 WtEn= 0.00D+00
 Coeff-Com: -0.372D-02 0.498D-02 0.661D-01 0.125D+00 0.276D+00 0.531D+00
 Coeff:     -0.372D-02 0.498D-02 0.661D-01 0.125D+00 0.276D+00 0.531D+00
 Gap=     0.090 Goal=   None    Shift=    0.000
 RMSDP=3.82D-08 MaxDP=1.27D-06 DE=-1.46D-09 OVMax= 4.94D-06

 Cycle  14  Pass 1  IDiag  1:
 RMSU=  2.43D-08    CP:  1.00D+00  8.24D-01  8.62D-01  5.35D-01  5.46D-01
                    CP:  7.47D-01
 E= -617.323916371455     Delta-E=       -0.000000000131 Rises=F Damp=F
 DIIS: error= 1.12D-07 at cycle   7 NSaved=   7.
 NSaved= 7 IEnMin= 7 EnMin= -617.323916371455     IErMin= 7 ErrMin= 1.12D-07
 ErrMax= 1.12D-07  0.00D+00 EMaxC= 1.00D-01 BMatC= 2.81D-12 BMatP= 9.66D-11
 IDIUse=1 WtCom= 1.00D+00 WtEn= 0.00D+00
 Coeff-Com: -0.101D-02 0.200D-03 0.123D-01 0.293D-01 0.743D-01 0.186D+00
 Coeff-Com:  0.699D+00
 Coeff:     -0.101D-02 0.200D-03 0.123D-01 0.293D-01 0.743D-01 0.186D+00
 Coeff:      0.699D+00
 Gap=     0.090 Goal=   None    Shift=    0.000
 RMSDP=8.77D-09 MaxDP=5.33D-07 DE=-1.31D-10 OVMax= 1.19D-06

 SCF Done:  E(RB3LYP) =  -617.323916371     A.U. after   14 cycles
            NFock= 14  Conv=0.88D-08     -V/T= 2.0101
 KE= 6.111555754936D+02 PE=-3.094077182809D+03 EE= 1.025875963051D+03
 Leave Link  502 at Wed Jun  9 00:29:16 2021, MaxMem=    33554432 cpu:       209.7
 (Enter /opt/app/gaussian09/e01/g09/l801.exe)
 DoSCS=F DFT=T ScalE2(SS,OS)=  1.000000  1.000000
 ExpMin= 1.61D-01 ExpMax= 4.17D+03 ExpMxC= 6.27D+02 IAcc=3 IRadAn=         5 AccDes= 0.00D+00
 HarFok:  IExCor=  205 AccDes= 0.00D+00 IRadAn=         5 IDoV=-2 UseB2=F ITyADJ=14
 ICtDFT= 12500011 ScaDFX=  1.000000  1.000000  1.000000  1.000000
 Largest valence mixing into a core orbital is  5.32D-05
 Largest core mixing into a valence orbital is  1.30D-05
 Range of M.O.s used for correlation:    16   330
 NBasis=   330 NAE=    56 NBE=    56 NFC=    15 NFV=     0
 NROrb=    315 NOA=    41 NOB=    41 NVA=   274 NVB=   274

 **** Warning!!: The smallest alpha delta epsilon is  0.90111044D-01

 Leave Link  801 at Wed Jun  9 00:29:19 2021, MaxMem=    33554432 cpu:         1.4
 (Enter /opt/app/gaussian09/e01/g09/l914.exe)
 RHF ground state
 MDV=    33554432 DFT=T DoStab=F Mixed=T DoRPA=T DoScal=F NonHer=T
 Would need an additional          4476900000 words for in-memory AO integral storage.
 Making orbital integer symmetry assigments:
    40 initial guesses have been made.
 Convergence on wavefunction:    0.001000000000000
 Davidson Disk Diagonalization:  ConvIn= 1.00D-03 SkipCon=T Conv= 1.00D-03.
 Max sub-space:   200 roots to seek:    40 dimension of matrix:        22468
 Iteration     1 Dimension    40 NMult     0 NNew     40
 CISAX will form    40 AO SS matrices at one time.
 NMat=    40 NSing=    40 JSym2X= 0.
 FoFJK:  IHMeth= 1 ICntrl=       0 DoSepK=F KAlg= 0 I1Cent=   0 FoldK=F
 IRaf=         0 NMat=  80 IRICut=     100 DoRegI=T DoRafI=T ISym2E= 0.
 FoFCou: FMM=F IPFlag=           0 FMFlag=      100000 FMFlg1=           0
         NFxFlg=           0 DoJE=F BraDBF=F KetDBF=F FulRan=T
         wScrn=  0.000000 ICntrl=       0 IOpCl=  0 I1Cent=           0 NGrid=           0
         NMat0=   80 NMatS0=     40 NMatT0=    0 NMatD0=   80 NMtDS0=    0 NMtDT0=    0
 Symmetry not used in FoFCou.
 New state      3 was old state      4
 New state      4 was old state      5
 New state      5 was old state      3
 New state      6 was old state      7
 New state      7 was old state     12
 New state      8 was old state      9
 New state      9 was old state     11
 New state     10 was old state     16
 Excitation Energies [eV] at current iteration:
 Root      1 :     3.290463584150988
 Root      2 :     4.117110013068126
 Root      3 :     5.266712391705554
 Root      4 :     5.650550821512224
 Root      5 :     5.814841009792740
 Root      6 :     6.253593427432979
 Root      7 :     6.281254527575826
 Root      8 :     6.395820051339655
 Root      9 :     6.559435395122451
 Root     10 :     6.569659416192690
 Root     11 :     6.793543048596244
 Root     12 :     6.819673183325339
 Root     13 :     6.920673182489695
 Root     14 :     6.974347592885506
 Root     15 :     6.990398904516883
 Root     16 :     7.014436271576344
 Root     17 :     7.404308874047064
 Root     18 :     7.436393801951583
 Root     19 :     7.543824967474507
 Root     20 :     7.558943559901356
 Root     21 :     7.574659755731251
 Root     22 :     7.650253672333637
 Root     23 :     7.650662713217573
 Root     24 :     7.698802902691782
 Root     25 :     7.751537642612522
 Root     26 :     7.772838613315289
 Root     27 :     8.057870351045587
 Root     28 :     8.088016793344545
 Root     29 :     8.099105321248114
 Root     30 :     8.129790976074657
 Root     31 :     8.176930463253475
 Root     32 :     8.235450100435418
 Root     33 :     8.288577082097310
 Root     34 :     8.323178266128837
 Root     35 :     8.350567514802705
 Root     36 :     8.351267848527350
 Root     37 :     8.428466357328707
 Root     38 :     8.516099368570085
 Root     39 :     8.891195285983086
 Root     40 :     9.195156800760115
 Iteration     2 Dimension    60 NMult    40 NNew     20
 CISAX will form    20 AO SS matrices at one time.
 NMat=    20 NSing=    20 JSym2X= 0.
 Root      1 not converged, maximum delta is    0.037647984874061
 Root      2 not converged, maximum delta is    0.054783769509745
 New state      3 was old state      5
 Root      3 not converged, maximum delta is    0.093209558698373
 New state      4 was old state      3
 Root      4 not converged, maximum delta is    0.151536841335771
 New state      5 was old state      4
 Root      5 not converged, maximum delta is    0.156359961386442
 Root      6 not converged, maximum delta is    0.125238150081763
 Root      7 not converged, maximum delta is    0.048410892637460
 Root      8 not converged, maximum delta is    0.036488976679650
 New state      9 was old state     10
 Root      9 not converged, maximum delta is    0.054101996549783
 New state     10 was old state      9
 Root     10 not converged, maximum delta is    0.020928351841725
 Excitation Energies [eV] at current iteration:
 Root      1 :     2.836415117555313   Change is   -0.454048466595675
 Root      2 :     3.845831864335011   Change is   -0.271278148733115
 Root      3 :     4.948430109416307   Change is   -0.866410900376433
 Root      4 :     5.084662727639449   Change is   -0.182049664066105
 Root      5 :     5.521018231304374   Change is   -0.129532590207851
 Root      6 :     6.002089889951612   Change is   -0.251503537481367
 Root      7 :     6.235961717651549   Change is   -0.045292809924277
 Root      8 :     6.370617648814419   Change is   -0.025202402525236
 Root      9 :     6.515016551274871   Change is   -0.054642864917819
 Root     10 :     6.538763424220495   Change is   -0.020671970901956
 Iteration     3 Dimension    80 NMult    60 NNew     20
 CISAX will form    20 AO SS matrices at one time.
 NMat=    20 NSing=    20 JSym2X= 0.
 Root      1 not converged, maximum delta is    0.008789035813067
 Root      2 not converged, maximum delta is    0.004323301475854
 Root      3 not converged, maximum delta is    0.015146843065100
 Root      4 not converged, maximum delta is    0.013735714119242
 Root      5 not converged, maximum delta is    0.005625634074136
 Root      6 not converged, maximum delta is    0.019672935645916
 Root      7 not converged, maximum delta is    0.002960811218332
 Root      8 not converged, maximum delta is    0.002669751599445
 Root      9 not converged, maximum delta is    0.005542921861098
 Root     10 not converged, maximum delta is    0.002345931238090
 Excitation Energies [eV] at current iteration:
 Root      1 :     2.816659436508335   Change is   -0.019755681046978
 Root      2 :     3.842001445995653   Change is   -0.003830418339358
 Root      3 :     4.901512332248728   Change is   -0.046917777167579
 Root      4 :     5.078141852620520   Change is   -0.006520875018930
 Root      5 :     5.518170529040916   Change is   -0.002847702263457
 Root      6 :     5.988321607310391   Change is   -0.013768282641221
 Root      7 :     6.234970684361749   Change is   -0.000991033289800
 Root      8 :     6.369937010129512   Change is   -0.000680638684907
 Root      9 :     6.513392253796567   Change is   -0.001624297478304
 Root     10 :     6.538087670204362   Change is   -0.000675754016132
 Iteration     4 Dimension   100 NMult    80 NNew     20
 CISAX will form    20 AO SS matrices at one time.
 NMat=    20 NSing=    20 JSym2X= 0.
 Root      1 not converged, maximum delta is    0.002465253493050
 Root      2 has converged.
 Root      3 not converged, maximum delta is    0.003298457913951
 Root      4 not converged, maximum delta is    0.001796169724485
 Root      5 not converged, maximum delta is    0.002061588315333
 Root      6 not converged, maximum delta is    0.001963520403962
 Root      7 has converged.
 Root      8 has converged.
 Root      9 not converged, maximum delta is    0.002917865367958
 No map to state     10
 Excitation Energies [eV] at current iteration:
 Root      1 :     2.815152734197534   Change is   -0.001506702310801
 Root      2 :     3.841685462614332   Change is   -0.000315983381321
 Root      3 :     4.897160002595528   Change is   -0.004352329653200
 Root      4 :     5.077682161339395   Change is   -0.000459691281124
 Root      5 :     5.517835621209632   Change is   -0.000334907831284
 Root      6 :     5.987117128088512   Change is   -0.001204479221879
 Root      7 :     6.234890714758656   Change is   -0.000079969603093
 Root      8 :     6.369877982722946   Change is   -0.000059027406565
 Root      9 :     6.513232998667893   Change is   -0.000159255128674
 Root     10 :     6.536615307463954
 Iteration     5 Dimension   114 NMult   100 NNew     14
 CISAX will form    14 AO SS matrices at one time.
 NMat=    14 NSing=    14 JSym2X= 0.
 Root      1 has converged.
 Root      2 has converged.
 Root      3 not converged, maximum delta is    0.001186987684016
 Root      4 has converged.
 Root      5 has converged.
 Root      6 has converged.
 Root      7 has converged.
 Root      8 has converged.
 New state      9 was old state     10
 Root      9 not converged, maximum delta is    0.061943301894679
 New state     10 was old state      9
 Root     10 not converged, maximum delta is    0.003460670793869
 Excitation Energies [eV] at current iteration:
 Root      1 :     2.815112877167387   Change is   -0.000039857030147
 Root      2 :     3.841681336336892   Change is   -0.000004126277440
 Root      3 :     4.896982057824149   Change is   -0.000177944771379
 Root      4 :     5.077658477520047   Change is   -0.000023683819348
 Root      5 :     5.517814878060477   Change is   -0.000020743149155
 Root      6 :     5.987014361865265   Change is   -0.000102766223247
 Root      7 :     6.234890713671216   Change is   -0.000000001087440
 Root      8 :     6.369877824022439   Change is   -0.000000158700508
 Root      9 :     6.396114155634036   Change is   -0.140501151829918
 Root     10 :     6.513219458450462   Change is   -0.000013540217431
 Iteration     6 Dimension   120 NMult   114 NNew      6
 CISAX will form     6 AO SS matrices at one time.
 NMat=     6 NSing=     6 JSym2X= 0.
 Root      1 has converged.
 Root      2 has converged.
 Root      3 has converged.
 Root      4 has converged.
 Root      5 has converged.
 Root      6 has converged.
 Root      7 has converged.
 Root      8 has converged.
 Root      9 not converged, maximum delta is    0.036867929174170
 Root     10 has converged.
 Excitation Energies [eV] at current iteration:
 Root      1 :     2.815112366390867   Change is   -0.000000510776519
 Root      2 :     3.841681199272061   Change is   -0.000000137064832
 Root      3 :     4.896971659417029   Change is   -0.000010398407120
 Root      4 :     5.077658360014560   Change is   -0.000000117505488
 Root      5 :     5.517814723818073   Change is   -0.000000154242405
 Root      6 :     5.987013273537179   Change is   -0.000001088328087
 Root      7 :     6.234890712093820   Change is   -0.000000001577396
 Root      8 :     6.369877677092384   Change is   -0.000000146930055
 Root      9 :     6.386629168934793   Change is   -0.009484986699243
 Root     10 :     6.513218050480813   Change is   -0.000001407969649
 Iteration     7 Dimension   122 NMult   120 NNew      2
 CISAX will form     2 AO SS matrices at one time.
 NMat=     2 NSing=     2 JSym2X= 0.
 Root      1 has converged.
 Root      2 has converged.
 Root      3 has converged.
 Root      4 has converged.
 Root      5 has converged.
 Root      6 has converged.
 Root      7 has converged.
 Root      8 has converged.
 Root      9 not converged, maximum delta is    0.003310420906315
 Root     10 has converged.
 Excitation Energies [eV] at current iteration:
 Root      1 :     2.815112365424742   Change is   -0.000000000966126
 Root      2 :     3.841681199264828   Change is   -0.000000000007232
 Root      3 :     4.896971659412412   Change is   -0.000000000004617
 Root      4 :     5.077657944848275   Change is   -0.000000415166284
 Root      5 :     5.517814682357458   Change is   -0.000000041460614
 Root      6 :     5.987013273526908   Change is   -0.000000000010271
 Root      7 :     6.234890710681409   Change is   -0.000000001412412
 Root      8 :     6.369877674393564   Change is   -0.000000002698820
 Root      9 :     6.386029290390484   Change is   -0.000599878544309
 Root     10 :     6.513218048312390   Change is   -0.000000002168423
 Iteration     8 Dimension   124 NMult   122 NNew      2
 CISAX will form     2 AO SS matrices at one time.
 NMat=     2 NSing=     2 JSym2X= 0.
 Root      1 has converged.
 Root      2 has converged.
 Root      3 has converged.
 Root      4 has converged.
 Root      5 has converged.
 Root      6 has converged.
 Root      7 has converged.
 Root      8 has converged.
 Root      9 has converged.
 Root     10 has converged.
 Excitation Energies [eV] at current iteration:
 Root      1 :     2.815112337755090   Change is   -0.000000027669651
 Root      2 :     3.841681199259392   Change is   -0.000000000005436
 Root      3 :     4.896971659409475   Change is   -0.000000000002937
 Root      4 :     5.077657875178692   Change is   -0.000000069669583
 Root      5 :     5.517814655086474   Change is   -0.000000027270985
 Root      6 :     5.987013273493047   Change is   -0.000000000033861
 Root      7 :     6.234890697246555   Change is   -0.000000013434855
 Root      8 :     6.369877674376180   Change is   -0.000000000017384
 Root      9 :     6.385983561805983   Change is   -0.000045728584501
 Root     10 :     6.513218048102618   Change is   -0.000000000209772
 Convergence achieved on expansion vectors.
 ***********************************************************************
 Excited states from <AA,BB:AA,BB> singles matrix:
 ***********************************************************************
 
 1PDM for each excited state written to RWF  633
 Ground to excited state transition densities written to RWF  633
 Ground to excited state transition electric dipole moments (Au):
       state          X           Y           Z        Dip. S.      Osc.
         1         5.7991     -0.0000      0.0000     33.6291      2.3194
         2        -0.0002      0.3454      0.0001      0.1193      0.0112
         3         0.0000      0.1413     -0.0002      0.0200      0.0024
         4         0.1960      0.0000      0.0001      0.0384      0.0048
         5         0.0684     -0.0000     -0.0000      0.0047      0.0006
         6        -0.0000     -0.1418     -0.0001      0.0201      0.0029
         7         0.0001     -0.0000     -0.0027      0.0000      0.0000
         8        -0.0014      0.0001     -0.0000      0.0000      0.0000
         9         0.8093      0.0001      0.0003      0.6549      0.1025
        10         0.0003      0.0000     -0.0000      0.0000      0.0000
 Ground to excited state transition velocity dipole moments (Au):
       state          X           Y           Z        Dip. S.      Osc.
         1        -0.5747      0.0000     -0.0000      0.3303      2.1282
         2         0.0000     -0.0497     -0.0000      0.0025      0.0117
         3        -0.0000     -0.0188      0.0000      0.0004      0.0013
         4        -0.0375     -0.0000     -0.0000      0.0014      0.0050
         5        -0.0160      0.0000      0.0000      0.0003      0.0008
         6         0.0000      0.0348      0.0000      0.0012      0.0037
         7        -0.0000      0.0000      0.0012      0.0000      0.0000
         8         0.0003     -0.0000      0.0000      0.0000      0.0000
         9        -0.1843     -0.0000     -0.0001      0.0340      0.0965
        10        -0.0001      0.0000      0.0000      0.0000      0.0000
 Ground to excited state transition magnetic dipole moments (Au):
       state          X           Y           Z
         1        -0.0000      0.0004     -0.1281
         2        -0.0000      0.0001     -0.0000
         3         0.0001     -0.0005      0.0003
         4        -0.0000      0.0002     -0.4392
         5         0.0000     -0.0000      0.4808
         6         0.0000     -0.0002      0.0000
         7         0.0018      0.0000     -0.0001
         8        -0.0001     -0.0061      0.0007
         9        -0.0003      0.0011     -0.6230
        10         0.0000      0.0209      0.0001
 Ground to excited state transition velocity quadrupole moments (Au):
       state          XX          YY          ZZ          XY          XZ          YZ
         1        -0.0002     -0.0000      0.0000      0.0563     -0.0002      0.0000
         2        -1.4207     -0.0391     -0.0072     -0.0000     -0.0001      0.0000
         3         8.8497      0.1975      0.0510      0.0001      0.0004      0.0000
         4         0.0022      0.0001      0.0000     -0.3644     -0.0002      0.0000
         5        -0.0008     -0.0000     -0.0000      0.2952      0.0000     -0.0000
         6         0.7965      0.0715      0.0148      0.0000      0.0002     -0.0000
         7         0.0003      0.0000     -0.0000      0.0000     -0.0000      0.0050
         8         0.0002      0.0000     -0.0000     -0.0001     -0.0132     -0.0000
         9         0.0002     -0.0000      0.0000     -0.0291     -0.0011     -0.0000
        10        -0.0003     -0.0000      0.0000      0.0002     -0.0463      0.0000
 <0|del|b> * <b|rxdel|0> + <0|del|b> * <b|delr+rdel|0>
 Rotatory Strengths (R) in cgs (10**-40 erg-esu-cm/Gauss)
       state          XX          YY          ZZ    R(velocity)    E-M Angle
         1         0.0006      0.0669      0.1034      0.0570       90.00
         2        -0.0203      0.0000     -0.0031     -0.0078       90.00
         3         0.0337      0.0000      0.0065      0.0134       90.00
         4         0.0233      0.0045      0.0044      0.0108       90.00
         5         0.0035      0.0011     -0.0012      0.0011       90.00
         6        -0.0271      0.0000      0.0001     -0.0090       90.00
         7        -0.0002     -0.0005      0.0001     -0.0002       90.00
         8        -0.0003     -0.0000      0.0007      0.0001       90.00
         9         0.0702      0.1445      0.0628      0.0925       90.00
        10         0.0000     -0.0000     -0.0000      0.0000       90.00
 1/2[<0|r|b>*<b|rxdel|0> + (<0|rxdel|b>*<b|r|0>)*]
 Rotatory Strengths (R) in cgs (10**-40 erg-esu-cm/Gauss)
       state          XX          YY          ZZ     R(length)
         1         0.1763      0.0000      0.0023      0.0595
         2        -0.0000     -0.0230      0.0000     -0.0077
         3        -0.0000      0.0545      0.0000      0.0182
         4         0.0066     -0.0000      0.0201      0.0089
         5        -0.0008     -0.0000      0.0010      0.0001
         6         0.0000     -0.0242      0.0000     -0.0081
         7        -0.0001      0.0000     -0.0002     -0.0001
         8        -0.0001      0.0005      0.0000      0.0001
         9         0.1476     -0.0001      0.1262      0.0913
        10        -0.0000     -0.0001      0.0000     -0.0000
  1/2[<0|del|b>*<b|r|0> + (<0|r|b>*<b|del|0>)*] (Au)
       state          X           Y           Z        Dip. S.   Osc.(frdel)
         1        -3.3326     -0.0000     -0.0000      3.3326      2.2217
         2        -0.0000     -0.0172     -0.0000      0.0172      0.0114
         3        -0.0000     -0.0027     -0.0000      0.0027      0.0018
         4        -0.0073     -0.0000     -0.0000      0.0073      0.0049
         5        -0.0011     -0.0000     -0.0000      0.0011      0.0007
         6        -0.0000     -0.0049     -0.0000      0.0049      0.0033
         7        -0.0000     -0.0000     -0.0000      0.0000      0.0000
         8        -0.0000     -0.0000     -0.0000      0.0000      0.0000
         9        -0.1492     -0.0000     -0.0000      0.1492      0.0995
        10        -0.0000      0.0000     -0.0000      0.0000      0.0000

 Excitation energies and oscillator strengths:
 
 Excited state symmetry could not be determined.
 Excited State   1:      Singlet-?Sym    2.8151 eV  440.42 nm  f=2.3194  <S**2>=0.000
      56 -> 57         0.72230
      56 <- 57        -0.16887
 This state for optimization and/or second-order correction.
 Total Energy, E(TD-HF/TD-KS) =  -617.220462892    
 Copying the excited state density for this state as the 1-particle RhoCI density.
 
 Excited state symmetry could not be determined.
 Excited State   2:      Singlet-?Sym    3.8417 eV  322.73 nm  f=0.0112  <S**2>=0.000
      55 -> 57         0.57937
      56 -> 58         0.40471
 
 Excited state symmetry could not be determined.
 Excited State   3:      Singlet-?Sym    4.8970 eV  253.19 nm  f=0.0024  <S**2>=0.000
      55 -> 57        -0.40994
      56 -> 58         0.58090
 
 Excited state symmetry could not be determined.
 Excited State   4:      Singlet-?Sym    5.0777 eV  244.18 nm  f=0.0048  <S**2>=0.000
      54 -> 57         0.64986
      55 -> 58         0.24204
      56 -> 59        -0.13075
 
 Excited state symmetry could not be determined.
 Excited State   5:      Singlet-?Sym    5.5178 eV  224.70 nm  f=0.0006  <S**2>=0.000
      55 -> 58         0.47563
      56 -> 59         0.51157
 
 Excited state symmetry could not be determined.
 Excited State   6:      Singlet-?Sym    5.9870 eV  207.09 nm  f=0.0029  <S**2>=0.000
      53 -> 57         0.68338
      55 -> 59         0.10939
 
 Excited state symmetry could not be determined.
 Excited State   7:      Singlet-?Sym    6.2349 eV  198.86 nm  f=0.0000  <S**2>=0.000
      51 -> 57         0.70235
 
 Excited state symmetry could not be determined.
 Excited State   8:      Singlet-?Sym    6.3699 eV  194.64 nm  f=0.0000  <S**2>=0.000
      56 -> 60         0.68044
      56 -> 63         0.16289
 
 Excited state symmetry could not be determined.
 Excited State   9:      Singlet-?Sym    6.3860 eV  194.15 nm  f=0.1025  <S**2>=0.000
      52 -> 57         0.14673
      54 -> 57         0.25958
      55 -> 58        -0.44620
      56 -> 59         0.45189
 
 Excited state symmetry could not be determined.
 Excited State  10:      Singlet-?Sym    6.5132 eV  190.36 nm  f=0.0000  <S**2>=0.000
      49 -> 57         0.69664
 SavETr:  write IOETrn=   770 NScale= 10 NData=  16 NLR=1 NState=   10 LETran=     190.
 Leave Link  914 at Wed Jun  9 00:48:42 2021, MaxMem=    33554432 cpu:      1158.7
 (Enter /opt/app/gaussian09/e01/g09/l601.exe)
 Copying SCF densities to generalized density rwf, IOpCl= 0 IROHF=0.

 **********************************************************************

            Population analysis using the SCF density.

 **********************************************************************

 Alpha  occ. eigenvalues --  -14.50484 -14.50483 -10.35925 -10.35924 -10.33352
 Alpha  occ. eigenvalues --  -10.33351 -10.33145 -10.33144 -10.31825 -10.31825
 Alpha  occ. eigenvalues --  -10.31331 -10.29580 -10.29580 -10.29068 -10.29067
 Alpha  occ. eigenvalues --   -1.08506  -1.08505  -0.93775  -0.92075  -0.89119
 Alpha  occ. eigenvalues --   -0.85738  -0.84492  -0.84492  -0.82281  -0.78593
 Alpha  occ. eigenvalues --   -0.73687  -0.69014  -0.67891  -0.66975  -0.66471
 Alpha  occ. eigenvalues --   -0.62878  -0.61919  -0.61288  -0.59748  -0.58593
 Alpha  occ. eigenvalues --   -0.58592  -0.55874  -0.55775  -0.52577  -0.52493
 Alpha  occ. eigenvalues --   -0.52094  -0.52093  -0.51821  -0.50811  -0.50232
 Alpha  occ. eigenvalues --   -0.50047  -0.48783  -0.48537  -0.47106  -0.46420
 Alpha  occ. eigenvalues --   -0.46167  -0.45448  -0.43027  -0.39513  -0.34659
 Alpha  occ. eigenvalues --   -0.28610
 Alpha virt. eigenvalues --   -0.19599  -0.12119  -0.06101  -0.02374  -0.02103
 Alpha virt. eigenvalues --   -0.02047  -0.01288  -0.00568  -0.00151   0.01562
 Alpha virt. eigenvalues --    0.01840   0.01992   0.03087   0.03174   0.04061
 Alpha virt. eigenvalues --    0.04548   0.04596   0.04601   0.05076   0.05487
 Alpha virt. eigenvalues --    0.06026   0.06786   0.08449   0.08470   0.08566
 Alpha virt. eigenvalues --    0.08729   0.09947   0.10901   0.11649   0.12612
 Alpha virt. eigenvalues --    0.16742   0.20488   0.21862   0.23797   0.24324
 Alpha virt. eigenvalues --    0.27360   0.28169   0.29295   0.30104   0.32891
 Alpha virt. eigenvalues --    0.37237   0.37509   0.37569   0.39254   0.39643
 Alpha virt. eigenvalues --    0.40880   0.41984   0.42559   0.43697   0.44302
 Alpha virt. eigenvalues --    0.45503   0.46336   0.46968   0.47748   0.48136
 Alpha virt. eigenvalues --    0.48228   0.48727   0.49813   0.50746   0.51233
 Alpha virt. eigenvalues --    0.52047   0.53353   0.55070   0.55877   0.56072
 Alpha virt. eigenvalues --    0.57421   0.59658   0.59710   0.62768   0.63332
 Alpha virt. eigenvalues --    0.64314   0.64324   0.68424   0.68523   0.69596
 Alpha virt. eigenvalues --    0.71192   0.71506   0.71552   0.72357   0.73075
 Alpha virt. eigenvalues --    0.73166   0.73292   0.73823   0.75219   0.75224
 Alpha virt. eigenvalues --    0.77456   0.77499   0.78444   0.78538   0.78548
 Alpha virt. eigenvalues --    0.78785   0.80159   0.80348   0.81641   0.81707
 Alpha virt. eigenvalues --    0.83976   0.85249   0.86008   0.87318   0.91472
 Alpha virt. eigenvalues --    0.91545   0.92920   0.93283   0.95423   0.96430
 Alpha virt. eigenvalues --    0.97706   1.05690   1.07011   1.11119   1.14693
 Alpha virt. eigenvalues --    1.14768   1.15136   1.16993   1.17070   1.18456
 Alpha virt. eigenvalues --    1.18587   1.19399   1.20019   1.20808   1.21982
 Alpha virt. eigenvalues --    1.22790   1.23632   1.25474   1.26339   1.27003
 Alpha virt. eigenvalues --    1.27984   1.32577   1.37211   1.37230   1.39413
 Alpha virt. eigenvalues --    1.41154   1.41592   1.42412   1.53986   1.54296
 Alpha virt. eigenvalues --    1.59829   1.59841   1.69530   1.69602   1.69995
 Alpha virt. eigenvalues --    1.71098   1.71287   1.71403   1.72402   1.73680
 Alpha virt. eigenvalues --    1.75230   1.77027   1.77359   1.79684   1.80383
 Alpha virt. eigenvalues --    1.81505   1.81835   1.83281   1.83309   1.86075
 Alpha virt. eigenvalues --    1.86464   1.86585   1.91306   1.91605   1.91786
 Alpha virt. eigenvalues --    1.91807   1.91808   1.92107   1.94274   1.95512
 Alpha virt. eigenvalues --    1.95837   1.95951   1.97288   1.97553   1.99474
 Alpha virt. eigenvalues --    2.01254   2.01648   2.02537   2.02954   2.03218
 Alpha virt. eigenvalues --    2.05297   2.06388   2.09386   2.10521   2.11609
 Alpha virt. eigenvalues --    2.14373   2.17836   2.18386   2.22181   2.22522
 Alpha virt. eigenvalues --    2.22659   2.23858   2.24603   2.28246   2.28821
 Alpha virt. eigenvalues --    2.30891   2.33275   2.34326   2.36039   2.37217
 Alpha virt. eigenvalues --    2.38867   2.40569   2.41202   2.41485   2.42999
 Alpha virt. eigenvalues --    2.43441   2.43768   2.47325   2.47557   2.48365
 Alpha virt. eigenvalues --    2.49532   2.49844   2.52490   2.53058   2.54898
 Alpha virt. eigenvalues --    2.55325   2.57253   2.58520   2.59004   2.59189
 Alpha virt. eigenvalues --    2.59325   2.61472   2.64340   2.66924   2.67057
 Alpha virt. eigenvalues --    2.69521   2.71375   2.72874   2.72887   2.73204
 Alpha virt. eigenvalues --    2.73304   2.77125   2.77127   2.79443   2.81335
 Alpha virt. eigenvalues --    2.82025   2.82704   2.88258   2.89570   2.96182
 Alpha virt. eigenvalues --    2.96849   2.99408   2.99496   3.06749   3.06794
 Alpha virt. eigenvalues --    3.11128   3.11133   3.25209   3.26481   3.28615
 Alpha virt. eigenvalues --    3.29892   3.29893   3.30351   3.30352   3.31469
 Alpha virt. eigenvalues --    3.32862   3.33245   3.35892   3.39239   3.41834
 Alpha virt. eigenvalues --    3.48779   3.49104   3.56544   3.56777   3.92949
 Alpha virt. eigenvalues --    3.92987   4.02253   4.03075   4.05139   4.09326
 Alpha virt. eigenvalues --    4.14726   4.24409   4.33296   4.35280   4.35441
 Alpha virt. eigenvalues --    4.39573   4.46321   4.56012   4.64361
     Molecular Orbital Coefficients:
                           1         2         3         4         5
                           O         O         O         O         O
     Eigenvalues --   -14.50484 -14.50483 -10.35925 -10.35924 -10.33352
   1 1   C  1S          0.00000  -0.00000   0.00003  -0.00001   0.00000
   2        2S          0.00002  -0.00000   0.00000  -0.00004   0.00003
   3        2PX         0.00001   0.00000   0.00011   0.00001   0.00005
   4        2PY         0.00001  -0.00000   0.00009   0.00000   0.00000
   5        2PZ         0.00000  -0.00000   0.00000  -0.00000  -0.00000
   6        3S         -0.00044   0.00007  -0.00262   0.00048  -0.00075
   7        3PX         0.00003  -0.00001  -0.00116   0.00019  -0.00024
   8        3PY        -0.00015   0.00003  -0.00152   0.00015   0.00009
   9        3PZ        -0.00000   0.00000  -0.00000   0.00000   0.00000
  10        4XX        -0.00001   0.00000   0.00004   0.00001  -0.00004
  11        4YY         0.00001  -0.00000   0.00004   0.00000   0.00000
  12        4ZZ         0.00000  -0.00000  -0.00001  -0.00001  -0.00001
  13        4XY        -0.00002  -0.00000  -0.00005   0.00001  -0.00003
  14        4XZ        -0.00000  -0.00000  -0.00000   0.00000  -0.00000
  15        4YZ         0.00000  -0.00000   0.00000   0.00000   0.00000
  16 2   H  1S         -0.00001   0.00000  -0.00011  -0.00000  -0.00002
  17        2S         -0.00003   0.00000  -0.00033   0.00000   0.00032
  18        3PX         0.00000   0.00000   0.00005  -0.00001   0.00000
  19        3PY        -0.00000  -0.00000  -0.00000  -0.00000   0.00002
  20        3PZ        -0.00000   0.00000  -0.00000  -0.00000   0.00000
  21 3   C  1S         -0.00000   0.00000  -0.00003  -0.00000  -0.00002
  22        2S         -0.00002   0.00000  -0.00015   0.00000  -0.00005
  23        2PX        -0.00001  -0.00000  -0.00000  -0.00003   0.00003
  24        2PY         0.00000  -0.00000  -0.00000  -0.00001  -0.00001
  25        2PZ         0.00000  -0.00000  -0.00000   0.00000  -0.00000
  26        3S          0.00026  -0.00005   0.00212  -0.00045   0.00029
  27        3PX        -0.00003   0.00003  -0.00159   0.00029  -0.00063
  28        3PY        -0.00008   0.00003  -0.00063   0.00021  -0.00009
  29        3PZ        -0.00000   0.00000  -0.00000   0.00000   0.00000
  30        4XX         0.00001  -0.00000   0.00005  -0.00001   0.00000
  31        4YY        -0.00000  -0.00000  -0.00002  -0.00000   0.00000
  32        4ZZ        -0.00000   0.00000  -0.00005  -0.00001  -0.00003
  33        4XY         0.00000  -0.00000   0.00003  -0.00002   0.00003
  34        4XZ        -0.00000   0.00000  -0.00000  -0.00000   0.00000
  35        4YZ         0.00000  -0.00000   0.00000   0.00000   0.00000
  36 4   H  1S          0.00000  -0.00000  -0.00004  -0.00002  -0.00002
  37        2S         -0.00000  -0.00001   0.00013   0.00000   0.00003
  38        3PX         0.00000  -0.00000   0.00005  -0.00001   0.00003
  39        3PY         0.00000  -0.00000  -0.00001  -0.00000   0.00000
  40        3PZ         0.00000  -0.00000  -0.00000   0.00000  -0.00000
  41 5   C  1S          0.00000   0.00000  -0.00001  -0.00001  -0.00001
  42        2S          0.00001   0.00001  -0.00001  -0.00001  -0.00003
  43        2PX        -0.00000   0.00000   0.00001  -0.00000  -0.00000
  44        2PY        -0.00000  -0.00000  -0.00001  -0.00001  -0.00000
  45        2PZ        -0.00000   0.00000  -0.00000  -0.00000  -0.00000
  46        3S         -0.00010  -0.00010   0.00023   0.00025   0.00044
  47        3PX         0.00009  -0.00009   0.00010  -0.00010  -0.00005
  48        3PY        -0.00002  -0.00002   0.00032   0.00035   0.00018
  49        3PZ        -0.00000  -0.00000   0.00000   0.00000   0.00000
  50        4XX        -0.00000  -0.00000  -0.00001  -0.00001   0.00000
  51        4YY         0.00000   0.00000   0.00000   0.00000   0.00000
  52        4ZZ         0.00000   0.00000  -0.00001  -0.00001  -0.00002
  53        4XY         0.00000  -0.00000  -0.00001   0.00001  -0.00001
  54        4XZ         0.00000  -0.00000  -0.00000   0.00000  -0.00000
  55        4YZ        -0.00000  -0.00000   0.00000   0.00000   0.00000
  56 6   H  1S          0.00000   0.00000   0.00001   0.00001   0.00001
  57        2S          0.00000   0.00000   0.00016   0.00018   0.00000
  58        3PX        -0.00000   0.00000  -0.00000   0.00000   0.00000
  59        3PY         0.00000   0.00000   0.00000   0.00001  -0.00000
  60        3PZ         0.00000   0.00000   0.00000  -0.00000  -0.00000
  61 7   C  1S         -0.00000   0.00000   0.00430   0.00017  -0.00002
  62        2S          0.00005   0.00000  -0.00025  -0.00000  -0.00017
  63        2PX         0.00000  -0.00000   0.00025   0.00001  -0.00005
  64        2PY         0.00002  -0.00000   0.00024   0.00001   0.00001
  65        2PZ         0.00000   0.00000   0.00000   0.00000   0.00000
  66        3S          0.00007  -0.00004   0.00560   0.00009   0.00301
  67        3PX         0.00036  -0.00002  -0.00086  -0.00009  -0.00144
  68        3PY        -0.00016   0.00001  -0.00147  -0.00005  -0.00132
  69        3PZ        -0.00000   0.00000  -0.00000  -0.00000  -0.00000
  70        4XX        -0.00009  -0.00000  -0.00037  -0.00002   0.00006
  71        4YY         0.00001   0.00000  -0.00041  -0.00001  -0.00002
  72        4ZZ        -0.00001   0.00000  -0.00020  -0.00001  -0.00005
  73        4XY        -0.00001   0.00000  -0.00011  -0.00001   0.00005
  74        4XZ         0.00000   0.00000  -0.00000  -0.00000   0.00000
  75        4YZ         0.00000  -0.00000  -0.00000  -0.00000   0.00000
  76 8   H  1S          0.00002   0.00000   0.00002   0.00000  -0.00002
  77        2S          0.00009  -0.00000  -0.00014   0.00001   0.00040
  78        3PX        -0.00002   0.00000   0.00001   0.00000   0.00004
  79        3PY         0.00000  -0.00000  -0.00008  -0.00000  -0.00001
  80        3PZ         0.00000  -0.00000  -0.00000  -0.00000  -0.00000
  81 9   C  1S          0.00005  -0.00000   0.99203   0.03852   0.00010
  82        2S          0.00023  -0.00000   0.04892   0.00189  -0.00008
  83        2PX        -0.00030  -0.00000  -0.00078  -0.00003   0.00010
  84        2PY         0.00008   0.00000   0.00026   0.00001   0.00015
  85        2PZ         0.00000   0.00000   0.00000   0.00000   0.00000
  86        3S         -0.00038   0.00000  -0.00989  -0.00042  -0.00122
  87        3PX         0.00010   0.00001  -0.00362  -0.00000  -0.00276
  88        3PY         0.00014  -0.00000  -0.00021  -0.00004  -0.00224
  89        3PZ         0.00000  -0.00000   0.00000  -0.00000  -0.00000
  90        4XX         0.00008   0.00000  -0.00855  -0.00034   0.00008
  91        4YY         0.00010  -0.00000  -0.00914  -0.00036   0.00005
  92        4ZZ        -0.00001  -0.00000  -0.00967  -0.00038  -0.00006
  93        4XY        -0.00001   0.00000  -0.00011  -0.00000  -0.00008
  94        4XZ        -0.00000   0.00000  -0.00000  -0.00000  -0.00000
  95        4YZ         0.00000  -0.00000   0.00000   0.00000   0.00000
  96 10  H  1S         -0.00004  -0.00000  -0.00039  -0.00002  -0.00018
  97        2S          0.00007  -0.00000   0.00206   0.00008  -0.00096
  98        3PX         0.00006  -0.00000   0.00019   0.00000   0.00013
  99        3PY        -0.00006  -0.00000  -0.00015  -0.00000  -0.00003
 100        3PZ        -0.00000  -0.00000  -0.00000  -0.00000  -0.00000
 101 11  N  1S          0.99265   0.00058  -0.00017  -0.00001  -0.00012
 102        2S          0.03482   0.00002   0.00016  -0.00000  -0.00002
 103        2PX         0.00008   0.00000  -0.00016  -0.00001   0.00006
 104        2PY        -0.00001   0.00000  -0.00003   0.00000  -0.00002
 105        2PZ        -0.00000   0.00000  -0.00000   0.00000  -0.00000
 106        3S          0.00397   0.00001  -0.00102   0.00008   0.00176
 107        3PX        -0.00006   0.00000  -0.00239  -0.00003  -0.00055
 108        3PY        -0.00007  -0.00000   0.00161   0.00003   0.00076
 109        3PZ         0.00000  -0.00000   0.00000   0.00000   0.00000
 110        4XX        -0.00842  -0.00001  -0.00071  -0.00003  -0.00047
 111        4YY        -0.00848  -0.00001  -0.00020  -0.00001  -0.00037
 112        4ZZ        -0.00834  -0.00001   0.00014  -0.00000  -0.00004
 113        4XY        -0.00003   0.00000   0.00030   0.00001  -0.00029
 114        4XZ        -0.00000  -0.00000   0.00000   0.00000  -0.00000
 115        4YZ        -0.00000  -0.00000  -0.00000  -0.00000  -0.00000
 116 12  C  1S          0.00000  -0.00000   0.00000  -0.00003   0.00000
 117        2S          0.00000  -0.00002   0.00002  -0.00015   0.00002
 118        2PX         0.00000   0.00001   0.00003   0.00000   0.00001
 119        2PY        -0.00000   0.00000  -0.00001  -0.00001  -0.00001
 120        2PZ        -0.00000  -0.00000  -0.00000   0.00000  -0.00000
 121        3S         -0.00005   0.00026  -0.00061   0.00208  -0.00033
 122        3PX        -0.00003   0.00003  -0.00041   0.00156  -0.00010
 123        3PY         0.00003  -0.00008   0.00025  -0.00061   0.00013
 124        3PZ         0.00000  -0.00000   0.00000  -0.00000   0.00000
 125        4XX        -0.00000   0.00001  -0.00002   0.00005  -0.00001
 126        4YY        -0.00000  -0.00000   0.00000  -0.00002   0.00000
 127        4ZZ         0.00000  -0.00000  -0.00000  -0.00005   0.00000
 128        4XY         0.00000  -0.00000   0.00002  -0.00003   0.00001
 129        4XZ         0.00000  -0.00000   0.00000  -0.00000   0.00000
 130        4YZ        -0.00000   0.00000   0.00000   0.00000  -0.00000
 131 13  H  1S         -0.00000   0.00000  -0.00002  -0.00004  -0.00001
 132        2S         -0.00001  -0.00000  -0.00001   0.00013  -0.00000
 133        3PX         0.00000  -0.00000   0.00002  -0.00005   0.00000
 134        3PY        -0.00000   0.00000  -0.00000  -0.00001  -0.00000
 135        3PZ        -0.00000  -0.00000  -0.00000   0.00000  -0.00000
 136 14  C  1S         -0.00000   0.00000  -0.00001   0.00003  -0.00001
 137        2S         -0.00000   0.00002  -0.00004  -0.00000  -0.00002
 138        2PX        -0.00000  -0.00001  -0.00000  -0.00011   0.00000
 139        2PY        -0.00000   0.00001  -0.00000   0.00009   0.00000
 140        2PZ        -0.00000   0.00000  -0.00000   0.00000  -0.00000
 141        3S          0.00007  -0.00044   0.00068  -0.00258   0.00021
 142        3PX         0.00001  -0.00003  -0.00028   0.00114  -0.00019
 143        3PY         0.00003  -0.00015   0.00027  -0.00150   0.00008
 144        3PZ         0.00000   0.00000   0.00000  -0.00000   0.00000
 145        4XX         0.00000  -0.00001   0.00001   0.00004   0.00001
 146        4YY        -0.00000   0.00001  -0.00000   0.00004  -0.00000
 147        4ZZ        -0.00000   0.00000  -0.00001  -0.00001  -0.00001
 148        4XY         0.00000   0.00002  -0.00001   0.00004  -0.00001
 149        4XZ        -0.00000   0.00000  -0.00000   0.00000  -0.00000
 150        4YZ         0.00000   0.00000   0.00000   0.00000   0.00000
 151 15  H  1S          0.00000  -0.00001   0.00001  -0.00011  -0.00000
 152        2S          0.00000  -0.00003   0.00003  -0.00033   0.00002
 153        3PX        -0.00000  -0.00000   0.00001  -0.00005   0.00001
 154        3PY        -0.00000  -0.00000  -0.00000  -0.00000   0.00000
 155        3PZ         0.00000  -0.00000  -0.00000   0.00000  -0.00000
 156 16  C  1S          0.00000  -0.00000  -0.00017   0.00430  -0.00000
 157        2S          0.00000   0.00005   0.00002  -0.00025  -0.00000
 158        2PX         0.00000  -0.00000   0.00001  -0.00025  -0.00000
 159        2PY        -0.00000   0.00002  -0.00001   0.00024   0.00000
 160        2PZ        -0.00000   0.00000  -0.00000   0.00000   0.00000
 161        3S         -0.00004   0.00007  -0.00035   0.00559   0.00005
 162        3PX         0.00002  -0.00036   0.00002   0.00086   0.00002
 163        3PY         0.00001  -0.00016   0.00007  -0.00147  -0.00004
 164        3PZ         0.00000  -0.00000  -0.00000   0.00000  -0.00000
 165        4XX        -0.00000  -0.00009   0.00001  -0.00037  -0.00000
 166        4YY         0.00000   0.00001   0.00002  -0.00041   0.00000
 167        4ZZ         0.00000  -0.00001   0.00001  -0.00020  -0.00000
 168        4XY        -0.00000   0.00001  -0.00000   0.00011   0.00000
 169        4XZ         0.00000  -0.00000  -0.00000   0.00000   0.00000
 170        4YZ        -0.00000   0.00000   0.00000  -0.00000   0.00000
 171 17  H  1S          0.00000   0.00002  -0.00000   0.00002   0.00000
 172        2S         -0.00000   0.00009   0.00002  -0.00014   0.00002
 173        3PX        -0.00000   0.00002  -0.00000  -0.00001  -0.00000
 174        3PY        -0.00000   0.00000   0.00000  -0.00008  -0.00000
 175        3PZ         0.00000   0.00000   0.00000  -0.00000  -0.00000
 176 18  N  1S         -0.00058   0.99265   0.00000  -0.00017  -0.00000
 177        2S         -0.00002   0.03482  -0.00002   0.00016  -0.00001
 178        2PX        -0.00000  -0.00008  -0.00001   0.00016   0.00000
 179        2PY         0.00000  -0.00001   0.00000  -0.00003   0.00000
 180        2PZ        -0.00000   0.00000   0.00000   0.00000   0.00000
 181        3S          0.00001   0.00397   0.00016  -0.00101   0.00006
 182        3PX        -0.00000   0.00006  -0.00016   0.00239  -0.00004
 183        3PY        -0.00000  -0.00007  -0.00010   0.00161  -0.00001
 184        3PZ         0.00000  -0.00000  -0.00000   0.00000  -0.00000
 185        4XX         0.00000  -0.00842   0.00003  -0.00071   0.00000
 186        4YY         0.00000  -0.00848   0.00000  -0.00020  -0.00000
 187        4ZZ         0.00000  -0.00834  -0.00001   0.00014  -0.00000
 188        4XY        -0.00000   0.00003   0.00001  -0.00030   0.00000
 189        4XZ         0.00000  -0.00000   0.00000  -0.00000   0.00000
 190        4YZ         0.00000   0.00000   0.00000  -0.00000  -0.00000
 191 19  C  1S         -0.00000   0.00005  -0.03853   0.99203   0.00000
 192        2S         -0.00000   0.00023  -0.00191   0.04892  -0.00000
 193        2PX        -0.00000   0.00030  -0.00003   0.00078   0.00000
 194        2PY         0.00000   0.00008  -0.00001   0.00026   0.00000
 195        2PZ         0.00000   0.00000  -0.00000   0.00000  -0.00000
 196        3S          0.00000  -0.00038   0.00035  -0.00989  -0.00007
 197        3PX        -0.00001  -0.00010  -0.00028   0.00361  -0.00005
 198        3PY        -0.00000   0.00014  -0.00002  -0.00022  -0.00003
 199        3PZ        -0.00000   0.00000   0.00000  -0.00000  -0.00000
 200        4XX         0.00000   0.00008   0.00033  -0.00855  -0.00000
 201        4YY        -0.00000   0.00010   0.00035  -0.00914  -0.00000
 202        4ZZ        -0.00000  -0.00001   0.00037  -0.00967  -0.00000
 203        4XY        -0.00000   0.00001  -0.00001   0.00011  -0.00000
 204        4XZ        -0.00000  -0.00000  -0.00000   0.00000  -0.00000
 205        4YZ        -0.00000  -0.00000   0.00000  -0.00000   0.00000
 206 20  H  1S         -0.00000  -0.00004   0.00001  -0.00039  -0.00000
 207        2S         -0.00000   0.00007  -0.00008   0.00206  -0.00000
 208        3PX         0.00000  -0.00006   0.00001  -0.00019   0.00000
 209        3PY         0.00000  -0.00006   0.00001  -0.00015   0.00000
 210        3PZ         0.00000  -0.00000  -0.00000   0.00000   0.00000
 211 21  C  1S          0.00000   0.00000   0.00001  -0.00013  -0.00000
 212        2S          0.00000   0.00003   0.00000  -0.00013  -0.00000
 213        2PX        -0.00000  -0.00005  -0.00000   0.00005   0.00000
 214        2PY         0.00000  -0.00030  -0.00001   0.00011   0.00000
 215        2PZ         0.00000  -0.00000   0.00000  -0.00000   0.00000
 216        3S         -0.00000  -0.00020   0.00006  -0.00112   0.00001
 217        3PX         0.00000  -0.00011   0.00005  -0.00096   0.00000
 218        3PY         0.00000   0.00016  -0.00001   0.00017  -0.00000
[...]
  24         O                -0.822808          1.598680
  25         O                -0.785926          1.610905
  26         O                -0.736870          1.647731
  27         O                -0.690138          1.565164
  28         O                -0.678905          1.155483
  29         O                -0.669745          1.182424
  30         O                -0.664711          1.299242
  31         O                -0.628777          1.221378
  32         O                -0.619194          1.425184
  33         O                -0.612877          1.200648
  34         O                -0.597482          1.343784
  35         O                -0.585931          1.050368
  36         O                -0.585923          1.050364
  37         O                -0.558738          1.377466
  38         O                -0.557749          1.335519
  39         O                -0.525767          1.399100
  40         O                -0.524929          1.206288
  41         O                -0.520936          1.025031
  42         O                -0.520927          1.025032
  43         O                -0.518211          1.316159
  44         O                -0.508111          1.276893
  45         O                -0.502323          1.141502
  46         O                -0.500469          1.205755
  47         O                -0.487833          1.705720
  48         O                -0.485371          1.277422
  49         O                -0.471057          1.208547
  50         O                -0.464205          1.019205
  51         O                -0.461674          1.159814
  52         O                -0.454479          1.113627
  53         O                -0.430273          1.186882
  54         O                -0.395134          1.264468
  55         O                -0.346586          1.333824
  56         O                -0.286100          1.391105
  57         V                -0.195988          1.477260
  58         V                -0.121194          1.554573
  59         V                -0.061012          1.575242
  60         V                -0.023742          0.971185
  61         V                -0.021034          1.484752
  62         V                -0.020468          1.006000
  63         V                -0.012880          0.918986
  64         V                -0.005676          0.940593
  65         V                -0.001511          1.329414
  66         V                 0.015617          1.131975
  67         V                 0.018397          1.473409
  68         V                 0.019920          1.339980
  69         V                 0.030868          1.282169
  70         V                 0.031740          1.341058
  71         V                 0.040607          1.073687
  72         V                 0.045476          1.161707
  73         V                 0.045958          0.886572
  74         V                 0.046011          0.887575
  75         V                 0.050764          1.131820
  76         V                 0.054871          1.050201
  77         V                 0.060265          1.268362
  78         V                 0.067855          1.121998
  79         V                 0.084490          1.075947
  80         V                 0.084700          1.079301
  81         V                 0.085658          1.257442
  82         V                 0.087292          1.143224
  83         V                 0.099468          1.375207
  84         V                 0.109010          1.268199
  85         V                 0.116486          1.705145
  86         V                 0.126123          1.592513
  87         V                 0.167424          2.348628
  88         V                 0.204880          2.039374
  89         V                 0.218621          1.400036
  90         V                 0.237967          1.419554
  91         V                 0.243241          1.209680
  92         V                 0.273595          1.279586
  93         V                 0.281690          1.810844
  94         V                 0.292946          2.041410
  95         V                 0.301039          1.914271
  96         V                 0.328907          1.733752
  97         V                 0.372366          2.547434
  98         V                 0.375088          1.770030
  99         V                 0.375691          1.756841
 100         V                 0.392539          2.188951
 101         V                 0.396427          2.375420
 102         V                 0.408801          2.288536
 103         V                 0.419840          1.944547
 104         V                 0.425589          1.966508
 105         V                 0.436971          1.725446
 106         V                 0.443016          1.951638
 107         V                 0.455025          2.795432
 108         V                 0.463363          2.003276
 109         V                 0.469680          1.845227
 110         V                 0.477480          1.980566
 111         V                 0.481357          1.997149
 112         V                 0.482280          1.616936
 113         V                 0.487268          2.194048
 114         V                 0.498131          2.066081
 115         V                 0.507461          2.148322
 116         V                 0.512334          2.396994
 117         V                 0.520468          2.034931
 118         V                 0.533534          2.379592
 119         V                 0.550697          2.279086
 120         V                 0.558767          2.159421
 121         V                 0.560725          2.176770
 122         V                 0.574208          2.089243
 123         V                 0.596585          2.149184
 124         V                 0.597100          2.170466
 125         V                 0.627682          2.228907
 126         V                 0.633321          2.186670
 127         V                 0.643136          2.283440
 128         V                 0.643236          2.288466
 129         V                 0.684243          2.559105
 130         V                 0.685225          2.576008
 131         V                 0.695964          2.641927
 132         V                 0.711923          2.659071
 133         V                 0.715056          2.567384
 134         V                 0.715524          2.565793
 135         V                 0.723572          2.654162
 136         V                 0.730751          2.338655
 137         V                 0.731661          2.347391
 138         V                 0.732917          2.559820
 139         V                 0.738235          2.453896
 140         V                 0.752186          2.518190
 141         V                 0.752243          2.566595
 142         V                 0.774563          2.457228
 143         V                 0.774995          2.657553
 144         V                 0.784437          2.483195
 145         V                 0.785382          2.332209
 146         V                 0.785484          2.495631
 147         V                 0.787851          2.563681
 148         V                 0.801594          2.500305
 149         V                 0.803485          2.497173
 150         V                 0.816412          2.398154
 151         V                 0.817073          2.459910
 152         V                 0.839762          2.325265
 153         V                 0.852487          2.399457
 154         V                 0.860078          2.412017
 155         V                 0.873178          2.378720
 156         V                 0.914715          2.326907
 157         V                 0.915449          2.357040
 158         V                 0.929204          2.154833
 159         V                 0.932825          2.106706
 160         V                 0.954227          2.224669
 161         V                 0.964305          2.375326
 162         V                 0.977058          2.205567
 163         V                 1.056904          2.421959
 164         V                 1.070106          2.328312
 165         V                 1.111191          2.350388
 166         V                 1.146932          2.366464
 167         V                 1.147677          2.371789
 168         V                 1.151365          2.650033
 169         V                 1.169929          2.447709
 170         V                 1.170700          2.467136
 171         V                 1.184563          2.427501
 172         V                 1.185873          2.424823
 173         V                 1.193989          2.462616
 174         V                 1.200187          2.429405
 175         V                 1.208079          2.472571
 176         V                 1.219820          2.529387
 177         V                 1.227902          2.434873
 178         V                 1.236321          2.449370
 179         V                 1.254743          2.702156
 180         V                 1.263391          2.664023
 181         V                 1.270034          2.605077
 182         V                 1.279842          2.486177
 183         V                 1.325773          2.518814
 184         V                 1.372107          2.548820
 185         V                 1.372304          2.612132
 186         V                 1.394126          2.580734
 187         V                 1.411538          2.569819
 188         V                 1.415916          2.727825
 189         V                 1.424118          2.734114
 190         V                 1.539858          2.864220
 191         V                 1.542960          2.874606
 192         V                 1.598286          2.744761
 193         V                 1.598414          2.745050
 194         V                 1.695301          2.964038
 195         V                 1.696021          2.982262
 196         V                 1.699950          2.877001
 197         V                 1.710978          3.156532
 198         V                 1.712866          2.906332
 199         V                 1.714033          3.112358
 200         V                 1.724019          3.034831
 201         V                 1.736801          3.245797
 202         V                 1.752295          2.927403
 203         V                 1.770268          3.144148
 204         V                 1.773590          3.269289
 205         V                 1.796836          3.358414
 206         V                 1.803831          2.982236
 207         V                 1.815046          3.619577
 208         V                 1.818352          3.592172
 209         V                 1.832812          3.357766
 210         V                 1.833093          3.473326
 211         V                 1.860747          3.430199
 212         V                 1.864638          3.062396
 213         V                 1.865848          3.430578
 214         V                 1.913065          3.032790
 215         V                 1.916055          2.877050
 216         V                 1.917858          3.384822
 217         V                 1.918067          2.846692
 218         V                 1.918083          2.863465
 219         V                 1.921067          2.971362
 220         V                 1.942745          3.152042
 221         V                 1.955120          3.284551
 222         V                 1.958374          3.127476
 223         V                 1.959509          3.129191
 224         V                 1.972875          3.387711
 225         V                 1.975528          3.176566
 226         V                 1.994738          3.294544
 227         V                 2.012541          3.325630
 228         V                 2.016482          3.299460
 229         V                 2.025368          3.268497
 230         V                 2.029539          3.207430
 231         V                 2.032176          3.319060
 232         V                 2.052975          3.383719
 233         V                 2.063885          3.589356
 234         V                 2.093863          3.252271
 235         V                 2.105212          3.462697
 236         V                 2.116088          3.494889
 237         V                 2.143728          3.296086
 238         V                 2.178356          3.716377
 239         V                 2.183858          3.345176
 240         V                 2.221815          3.492370
 241         V                 2.225218          3.429773
 242         V                 2.226593          3.410154
 243         V                 2.238578          3.675798
 244         V                 2.246034          3.682810
 245         V                 2.282457          3.474449
 246         V                 2.288206          3.769728
 247         V                 2.308915          3.304161
 248         V                 2.332750          3.378397
 249         V                 2.343263          3.442401
 250         V                 2.360386          3.526381
 251         V                 2.372167          3.462029
 252         V                 2.388673          3.979208
 253         V                 2.405687          3.705274
 254         V                 2.412020          3.557976
 255         V                 2.414853          3.877882
 256         V                 2.429987          3.603605
 257         V                 2.434409          3.572982
 258         V                 2.437685          3.988670
 259         V                 2.473249          3.671735
 260         V                 2.475571          3.641838
 261         V                 2.483654          3.656525
 262         V                 2.495320          3.688417
 263         V                 2.498440          3.683867
 264         V                 2.524903          3.729245
 265         V                 2.530580          3.759275
 266         V                 2.548978          3.767557
 267         V                 2.553250          3.976915
 268         V                 2.572529          3.741165
 269         V                 2.585199          3.730845
 270         V                 2.590036          3.823887
 271         V                 2.591893          3.811432
 272         V                 2.593248          3.828824
 273         V                 2.614720          3.894849
 274         V                 2.643396          4.136450
 275         V                 2.669242          3.907844
 276         V                 2.670569          4.244838
 277         V                 2.695214          3.969275
 278         V                 2.713746          3.899260
 279         V                 2.728736          3.878665
 280         V                 2.728872          3.879286
 281         V                 2.732037          4.036517
 282         V                 2.733043          4.230496
 283         V                 2.771252          3.951506
 284         V                 2.771272          3.951567
 285         V                 2.794435          4.269539
 286         V                 2.813349          4.392000
 287         V                 2.820248          4.694383
 288         V                 2.827040          4.446764
 289         V                 2.882576          4.391700
 290         V                 2.895698          4.434826
 291         V                 2.961815          4.589709
 292         V                 2.968491          4.569487
 293         V                 2.994081          4.800895
 294         V                 2.994957          4.786245
 295         V                 3.067490          4.893772
 296         V                 3.067937          4.894453
 297         V                 3.111282          4.976827
 298         V                 3.111326          4.981381
 299         V                 3.252085          5.370623
 300         V                 3.264812          5.258648
 301         V                 3.286155          5.173533
 302         V                 3.298921          5.063541
 303         V                 3.298928          5.063525
 304         V                 3.303515          5.073237
 305         V                 3.303521          5.073226
 306         V                 3.314687          5.194231
 307         V                 3.328616          5.085704
 308         V                 3.332452          5.086000
 309         V                 3.358923          5.223342
 310         V                 3.392395          5.171394
 311         V                 3.418338          5.271375
 312         V                 3.487789          5.318636
 313         V                 3.491035          5.386322
 314         V                 3.565444          5.446205
 315         V                 3.567768          5.391570
 316         V                 3.929486         10.343909
 317         V                 3.929871         10.348445
 318         V                 4.022529         10.166311
 319         V                 4.030751         10.168667
 320         V                 4.051392         10.147310
 321         V                 4.093265         10.086785
 322         V                 4.147264         10.003258
 323         V                 4.244086          9.938734
 324         V                 4.332960          9.969836
 325         V                 4.352799         10.013640
 326         V                 4.354413         10.001831
 327         V                 4.395729         10.066785
 328         V                 4.463207          9.981301
 329         V                 4.560121          9.885831
 330         V                 4.643614          9.838111
 Total kinetic energy from orbitals= 6.111555754936D+02
 Leave Link  601 at Wed Jun  9 00:48:43 2021, MaxMem=    33554432 cpu:         1.1
 (Enter /opt/app/gaussian09/e01/g09/l9999.exe)
 1\1\GINC-NB-0054\SP\RB3LYP TD-FC\6-31G(d,p)\C13H21N2(1+)\ROOT\09-Jun-2
 021\0\\#p td(NStates=10) b3lyp/6-31g(d,p) nosymm pop=full\\Title Card 
 Required\\1,1\C,0,-2.44309538,-0.29806284,-0.00007455\H,0,-2.38630382,
 -1.38757976,-0.00022666\C,0,-1.2403289,0.40071777,-0.00002185\H,0,-1.2
 6577498,1.48873719,0.00012641\C,0,-0.00002594,-0.23995778,-0.00015219\
 H,0,-0.00006643,-1.33092644,-0.00029711\C,0,-3.71935818,0.27875698,0.0
 000482\H,0,-3.80564757,1.36048079,0.00020374\C,0,-4.85788563,-0.516439
 46,-0.00003163\H,0,-4.73679238,-1.59713765,-0.00019873\N,0,-6.1246117,
 -0.09629647,0.00007719\C,0,1.24030587,0.40066026,-0.00010354\H,0,1.265
 80732,1.48868431,0.00002695\C,0,2.44305254,-0.29816878,-0.00024499\H,0
 ,2.38620193,-1.38768517,-0.00043835\C,0,3.71935597,0.27861172,-0.00021
 639\H,0,3.80568812,1.36034524,0.00002102\N,0,6.12462863,-0.09627775,-0
 .00020892\C,0,4.85790145,-0.51653247,-0.00032666\H,0,4.736945,-1.59725
 496,-0.0002171\C,0,6.44582081,1.33157793,-0.00008674\H,0,6.03661132,1.
 81941593,-0.89067047\H,0,6.03867914,1.81892596,0.89173681\H,0,7.528454
 86,1.45277614,-0.00134504\C,0,7.24283731,-1.03822339,0.00071146\H,0,7.
 86428847,-0.8914032,-0.88853341\H,0,7.86276121,-0.89158878,0.89106588\
 H,0,6.86481965,-2.06114951,0.00028418\C,0,-7.24277482,-1.03833993,-0.0
 0005278\H,0,-7.86348221,-0.89149681,-0.88981419\H,0,-6.86464529,-2.061
 2161,-0.0002277\H,0,-7.8634466,-0.89178707,0.88978118\C,0,-6.44585944,
 1.33154834,0.00030821\H,0,-6.03763692,1.81901164,0.89155818\H,0,-6.037
 75313,1.81927675,-0.89085035\H,0,-7.52850021,1.45270097,0.00039748\\Ve
 rsion=ES64L-G09RevE.01\HF=-617.3239164\RMSD=8.775e-09\PG=C01 [X(C13H21
 N2)]\\@


 HE THAT FOLLOWS NATURE IS NEVER LOST.

                             -- BACON
 Job cpu time:       0 days  0 hours 22 minutes 56.1 seconds.
 File lengths (MBytes):  RWF=    291 Int=      0 D2E=      0 Chk=     69 Scr=      1
 Normal termination of Gaussian 09 at Wed Jun  9 00:48:45 2021.
