 Entering Gaussian System, Link 0=/opt/app/gaussian09/e01/g09/g09.exec
 Input=4_pp_opt.gjf
 Output=4_pp_opt.log
 Initial command:
 /opt/app/gaussian09/e01/g09/l1.exe "./Gau-37588.inp" -scrdir="./"
 Entering Link 1 = /opt/app/gaussian09/e01/g09/l1.exe PID=     37592.
  
 Copyright (c) 1988,1990,1992,1993,1995,1998,2003,2009,2015,
            Gaussian, Inc.  All Rights Reserved.
  
 This is part of the Gaussian(R) 09 program.  It is based on
 the Gaussian(R) 03 system (copyright 2003, Gaussian, Inc.),
 the Gaussian(R) 98 system (copyright 1998, Gaussian, Inc.),
 the Gaussian(R) 94 system (copyright 1995, Gaussian, Inc.),
 the Gaussian 92(TM) system (copyright 1992, Gaussian, Inc.),
 the Gaussian 90(TM) system (copyright 1990, Gaussian, Inc.),
 the Gaussian 88(TM) system (copyright 1988, Gaussian, Inc.),
 the Gaussian 86(TM) system (copyright 1986, Carnegie Mellon
 University), and the Gaussian 82(TM) system (copyright 1983,
 Carnegie Mellon University). Gaussian is a federally registered
 trademark of Gaussian, Inc.
  
 This software contains proprietary and confidential information,
 including trade secrets, belonging to Gaussian, Inc.
  
 This software is provided under written license and may be
 used, copied, transmitted, or stored only in accord with that
 written license.
  
 The following legend is applicable only to US Government
 contracts under FAR:
  
                    RESTRICTED RIGHTS LEGEND
  
 Use, reproduction and disclosure by the US Government is
 subject to restrictions as set forth in subparagraphs (a)
 and (c) of the Commercial Computer Software - Restricted
 Rights clause in FAR 52.227-19.
  
 Gaussian, Inc.
 340 Quinnipiac St., Bldg. 40, Wallingford CT 06492
  
  
 ---------------------------------------------------------------
 Warning -- This program may not be used in any manner that
 competes with the business of Gaussian, Inc. or will provide
 assistance to any competitor of Gaussian, Inc.  The licensee
 of this program is prohibited from giving any competitor of
 Gaussian, Inc. access to this program.  By using this program,
 the user acknowledges that Gaussian, Inc. is engaged in the
 business of creating and licensing software in the field of
 computational chemistry and represents and warrants to the
 licensee that it is not a competitor of Gaussian, Inc. and that
 it will not use this program in any manner prohibited above.
 ---------------------------------------------------------------
  

 Cite this work as:
 Gaussian 09, Revision E.01,
 M. J. Frisch, G. W. Trucks, H. B. Schlegel, G. E. Scuseria, 
 M. A. Robb, J. R. Cheeseman, G. Scalmani, V. Barone, B. Mennucci, 
 G. A. Petersson, H. Nakatsuji, M. Caricato, X. Li, H. P. Hratchian, 
 A. F. Izmaylov, J. Bloino, G. Zheng, J. L. Sonnenberg, M. Hada, 
 M. Ehara, K. Toyota, R. Fukuda, J. Hasegawa, M. Ishida, T. Nakajima, 
 Y. Honda, O. Kitao, H. Nakai, T. Vreven, J. A. Montgomery, Jr., 
 J. E. Peralta, F. Ogliaro, M. Bearpark, J. J. Heyd, E. Brothers, 
 K. N. Kudin, V. N. Staroverov, T. Keith, R. Kobayashi, J. Normand, 
 K. Raghavachari, A. Rendell, J. C. Burant, S. S. Iyengar, J. Tomasi, 
 M. Cossi, N. Rega, J. M. Millam, M. Klene, J. E. Knox, J. B. Cross, 
 V. Bakken, C. Adamo, J. Jaramillo, R. Gomperts, R. E. Stratmann, 
 O. Yazyev, A. J. Austin, R. Cammi, C. Pomelli, J. W. Ochterski, 
 R. L. Martin, K. Morokuma, V. G. Zakrzewski, G. A. Voth, 
 P. Salvador, J. J. Dannenberg, S. Dapprich, A. D. Daniels, 
 O. Farkas, J. B. Foresman, J. V. Ortiz, J. Cioslowski, 
 and D. J. Fox, Gaussian, Inc., Wallingford CT, 2013.
 
 ******************************************
 Gaussian 09:  ES64L-G09RevE.01 30-Nov-2015
                 8-Jun-2021 
 ******************************************
 %chk=4_pp_opt.chk
 ---------------------------------------------------
 #p opt b3lyp/6-31g(d,p) geom=connectivity scf=tight
 ---------------------------------------------------
 1/14=-1,18=20,19=15,26=3,38=1,57=2/1,3;
 2/9=110,12=2,17=6,18=5,40=1/2;
 3/5=1,6=6,7=101,11=2,16=1,25=1,30=1,71=1,74=-5/1,2,3;
 4//1;
 5/5=2,32=2,38=5/2;
 6/7=2,8=2,9=2,10=2,28=1/1;
 7//1,2,3,16;
 1/14=-1,18=20,19=15,26=3/3(2);
 2/9=110/2;
 99//99;
 2/9=110/2;
 3/5=1,6=6,7=101,11=2,16=1,25=1,30=1,71=1,74=-5/1,2,3;
 4/5=5,16=3,69=1/1;
 5/5=2,32=2,38=5/2;
 7//1,2,3,16;
 1/14=-1,18=20,19=15,26=3/3(-5);
 2/9=110/2;
 6/7=2,8=2,9=2,10=2,19=2,28=1/1;
 99/9=1/99;
 Leave Link    1 at Tue Jun  8 19:58:32 2021, MaxMem=           0 cpu:         0.1
 (Enter /opt/app/gaussian09/e01/g09/l101.exe)
 ---
 opt
 ---
 Symbolic Z-matrix:
 Charge =  1 Multiplicity = 1
 C                    -0.625    -0.35377   0. 
 H                    -0.60256  -1.44393   0.00009 
 C                     0.58113   0.3195   -0.00006 
 H                     0.5872    1.40768  -0.00014 
 C                     1.80782  -0.36467  -0.00004 
 H                     1.76998  -1.45472   0. 
 C                    -1.90064   0.26407  -0.00007 
 H                    -1.94362   1.34879  -0.00018 
 C                    -3.0243   -0.51506  -0.00001 
 H                    -2.93751  -1.59888   0.00007 
 N                    -4.34113  -0.11821  -0.00006 
 C                     3.07077   0.24269  -0.00009 
 H                     3.1492    1.30981   0.00015 
 C                     4.34614  -0.62047  -0.00049 
 H                     4.26771  -1.68759  -0.00073 
 C                     5.56745  -0.03314  -0.00054 
 H                     5.65222   1.0335   -0.00059 
 N                     8.03414  -0.33138  -0.00071 
 C                     6.83766  -0.90386  -0.00053 
 H                     6.95493  -1.96741  -0.00051 
 C                     8.1857    1.13078  -0.00078 
 H                     7.72244   1.53734  -0.87543 
 H                     7.71906   1.53776   0.87187 
 H                     9.2259    1.38154   0.00117 
 C                     9.27174  -1.12463  -0.00062 
 H                     9.85376  -0.87764  -0.86385 
 H                     9.83455  -0.9074    0.8831 
 H                     9.02776  -2.16624  -0.02105 
 C                    -5.36557  -1.17245  -0.00011 
 H                    -5.97585  -1.0767   -0.87378 
 H                    -4.89064  -2.13128  -0.00013 
 H                    -5.97589  -1.07675   0.87353 
 C                    -4.79037   1.28146  -0.00003 
 H                    -4.41908   1.7752    0.87362 
 H                    -4.41911   1.77523  -0.87368 
 H                    -5.85991   1.31277  -0.00001 
 
 NAtoms=     36 NQM=       36 NQMF=       0 NMMI=      0 NMMIF=      0
                NMic=       0 NMicF=      0.
                    Isotopes and Nuclear Properties:
 (Nuclear quadrupole moments (NQMom) in fm**2, nuclear magnetic moments (NMagM)
  in nuclear magnetons)

  Atom         1           2           3           4           5           6           7           8           9          10
 IAtWgt=          12           1          12           1          12           1          12           1          12           1
 AtmWgt=  12.0000000   1.0078250  12.0000000   1.0078250  12.0000000   1.0078250  12.0000000   1.0078250  12.0000000   1.0078250
 NucSpn=           0           1           0           1           0           1           0           1           0           1
 AtZEff=   0.0000000   0.0000000   0.0000000   0.0000000   0.0000000   0.0000000   0.0000000   0.0000000   0.0000000   0.0000000
 NQMom=    0.0000000   0.0000000   0.0000000   0.0000000   0.0000000   0.0000000   0.0000000   0.0000000   0.0000000   0.0000000
 NMagM=    0.0000000   2.7928460   0.0000000   2.7928460   0.0000000   2.7928460   0.0000000   2.7928460   0.0000000   2.7928460
 AtZNuc=   6.0000000   1.0000000   6.0000000   1.0000000   6.0000000   1.0000000   6.0000000   1.0000000   6.0000000   1.0000000

  Atom        11          12          13          14          15          16          17          18          19          20
 IAtWgt=          14          12           1          12           1          12           1          14          12           1
 AtmWgt=  14.0030740  12.0000000   1.0078250  12.0000000   1.0078250  12.0000000   1.0078250  14.0030740  12.0000000   1.0078250
 NucSpn=           2           0           1           0           1           0           1           2           0           1
 AtZEff=   0.0000000   0.0000000   0.0000000   0.0000000   0.0000000   0.0000000   0.0000000   0.0000000   0.0000000   0.0000000
 NQMom=    2.0440000   0.0000000   0.0000000   0.0000000   0.0000000   0.0000000   0.0000000   2.0440000   0.0000000   0.0000000
 NMagM=    0.4037610   0.0000000   2.7928460   0.0000000   2.7928460   0.0000000   2.7928460   0.4037610   0.0000000   2.7928460
 AtZNuc=   7.0000000   6.0000000   1.0000000   6.0000000   1.0000000   6.0000000   1.0000000   7.0000000   6.0000000   1.0000000

  Atom        21          22          23          24          25          26          27          28          29          30
 IAtWgt=          12           1           1           1          12           1           1           1          12           1
 AtmWgt=  12.0000000   1.0078250   1.0078250   1.0078250  12.0000000   1.0078250   1.0078250   1.0078250  12.0000000   1.0078250
 NucSpn=           0           1           1           1           0           1           1           1           0           1
 AtZEff=   0.0000000   0.0000000   0.0000000   0.0000000   0.0000000   0.0000000   0.0000000   0.0000000   0.0000000   0.0000000
 NQMom=    0.0000000   0.0000000   0.0000000   0.0000000   0.0000000   0.0000000   0.0000000   0.0000000   0.0000000   0.0000000
 NMagM=    0.0000000   2.7928460   2.7928460   2.7928460   0.0000000   2.7928460   2.7928460   2.7928460   0.0000000   2.7928460
 AtZNuc=   6.0000000   1.0000000   1.0000000   1.0000000   6.0000000   1.0000000   1.0000000   1.0000000   6.0000000   1.0000000

  Atom        31          32          33          34          35          36
 IAtWgt=           1           1          12           1           1           1
 AtmWgt=   1.0078250   1.0078250  12.0000000   1.0078250   1.0078250   1.0078250
 NucSpn=           1           1           0           1           1           1
 AtZEff=   0.0000000   0.0000000   0.0000000   0.0000000   0.0000000   0.0000000
 NQMom=    0.0000000   0.0000000   0.0000000   0.0000000   0.0000000   0.0000000
 NMagM=    2.7928460   2.7928460   0.0000000   2.7928460   2.7928460   2.7928460
 AtZNuc=   1.0000000   1.0000000   6.0000000   1.0000000   1.0000000   1.0000000
 Leave Link  101 at Tue Jun  8 19:58:33 2021, MaxMem=    33554432 cpu:         0.1
 (Enter /opt/app/gaussian09/e01/g09/l103.exe)

 GradGradGradGradGradGradGradGradGradGradGradGradGradGradGradGradGradGrad
 Berny optimization.
 Initialization pass.
                           ----------------------------
                           !    Initial Parameters    !
                           ! (Angstroms and Degrees)  !
 --------------------------                            --------------------------
 ! Name  Definition              Value          Derivative Info.                !
 --------------------------------------------------------------------------------
 ! R1    R(1,2)                  1.0904         estimate D2E/DX2                !
 ! R2    R(1,3)                  1.3813         estimate D2E/DX2                !
 ! R3    R(1,7)                  1.4174         estimate D2E/DX2                !
 ! R4    R(3,4)                  1.0882         estimate D2E/DX2                !
 ! R5    R(3,5)                  1.4046         estimate D2E/DX2                !
 ! R6    R(5,6)                  1.0907         estimate D2E/DX2                !
 ! R7    R(5,12)                 1.4014         estimate D2E/DX2                !
 ! R8    R(7,8)                  1.0856         estimate D2E/DX2                !
 ! R9    R(7,9)                  1.3674         estimate D2E/DX2                !
 ! R10   R(9,10)                 1.0873         estimate D2E/DX2                !
 ! R11   R(9,11)                 1.3753         estimate D2E/DX2                !
 ! R12   R(11,29)                1.47           estimate D2E/DX2                !
 ! R13   R(11,33)                1.47           estimate D2E/DX2                !
 ! R14   R(12,13)                1.07           estimate D2E/DX2                !
 ! R15   R(12,14)                1.54           estimate D2E/DX2                !
 ! R16   R(14,15)                1.07           estimate D2E/DX2                !
 ! R17   R(14,16)                1.3552         estimate D2E/DX2                !
 ! R18   R(16,17)                1.07           estimate D2E/DX2                !
 ! R19   R(16,19)                1.54           estimate D2E/DX2                !
 ! R20   R(18,19)                1.3264         estimate D2E/DX2                !
 ! R21   R(18,21)                1.47           estimate D2E/DX2                !
 ! R22   R(18,25)                1.47           estimate D2E/DX2                !
 ! R23   R(19,20)                1.07           estimate D2E/DX2                !
 ! R24   R(21,22)                1.07           estimate D2E/DX2                !
 ! R25   R(21,23)                1.07           estimate D2E/DX2                !
 ! R26   R(21,24)                1.07           estimate D2E/DX2                !
 ! R27   R(25,26)                1.07           estimate D2E/DX2                !
 ! R28   R(25,27)                1.07           estimate D2E/DX2                !
 ! R29   R(25,28)                1.07           estimate D2E/DX2                !
 ! R30   R(29,30)                1.07           estimate D2E/DX2                !
 ! R31   R(29,31)                1.07           estimate D2E/DX2                !
 ! R32   R(29,32)                1.07           estimate D2E/DX2                !
 ! R33   R(33,34)                1.07           estimate D2E/DX2                !
 ! R34   R(33,35)                1.07           estimate D2E/DX2                !
 ! R35   R(33,36)                1.07           estimate D2E/DX2                !
 ! A1    A(2,1,3)              117.9913         estimate D2E/DX2                !
 ! A2    A(2,1,7)              117.0221         estimate D2E/DX2                !
 ! A3    A(3,1,7)              124.9866         estimate D2E/DX2                !
 ! A4    A(1,3,4)              119.4903         estimate D2E/DX2                !
 ! A5    A(1,3,5)              121.6797         estimate D2E/DX2                !
 ! A6    A(4,3,5)              118.83           estimate D2E/DX2                !
 ! A7    A(3,5,6)              117.1615         estimate D2E/DX2                !
 ! A8    A(3,5,12)             125.1673         estimate D2E/DX2                !
 ! A9    A(6,5,12)             117.6712         estimate D2E/DX2                !
 ! A10   A(1,7,8)              118.1118         estimate D2E/DX2                !
 ! A11   A(1,7,9)              119.4202         estimate D2E/DX2                !
 ! A12   A(8,7,9)              122.4681         estimate D2E/DX2                !
 ! A13   A(7,9,10)             120.1586         estimate D2E/DX2                !
 ! A14   A(7,9,11)             128.4917         estimate D2E/DX2                !
 ! A15   A(10,9,11)            111.3498         estimate D2E/DX2                !
 ! A16   A(9,11,29)            117.4072         estimate D2E/DX2                !
 ! A17   A(9,11,33)            124.5657         estimate D2E/DX2                !
 ! A18   A(29,11,33)           118.027          estimate D2E/DX2                !
 ! A19   A(5,12,13)            119.8865         estimate D2E/DX2                !
 ! A20   A(5,12,14)            120.2269         estimate D2E/DX2                !
 ! A21   A(13,12,14)           119.8865         estimate D2E/DX2                !
 ! A22   A(12,14,15)           119.8865         estimate D2E/DX2                !
 ! A23   A(12,14,16)           120.2269         estimate D2E/DX2                !
 ! A24   A(15,14,16)           119.8865         estimate D2E/DX2                !
 ! A25   A(14,16,17)           120.2269         estimate D2E/DX2                !
 ! A26   A(14,16,19)           119.8865         estimate D2E/DX2                !
 ! A27   A(17,16,19)           119.8865         estimate D2E/DX2                !
 ! A28   A(19,18,21)           121.4873         estimate D2E/DX2                !
 ! A29   A(19,18,25)           121.7725         estimate D2E/DX2                !
 ! A30   A(21,18,25)           116.7402         estimate D2E/DX2                !
 ! A31   A(16,19,18)           120.0            estimate D2E/DX2                !
 ! A32   A(16,19,20)           130.7226         estimate D2E/DX2                !
 ! A33   A(18,19,20)           109.2774         estimate D2E/DX2                !
 ! A34   A(18,21,22)           109.4712         estimate D2E/DX2                !
 ! A35   A(18,21,23)           109.4712         estimate D2E/DX2                !
 ! A36   A(18,21,24)           109.4712         estimate D2E/DX2                !
 ! A37   A(22,21,23)           109.4713         estimate D2E/DX2                !
 ! A38   A(22,21,24)           109.4712         estimate D2E/DX2                !
 ! A39   A(23,21,24)           109.4712         estimate D2E/DX2                !
 ! A40   A(18,25,26)           109.4712         estimate D2E/DX2                !
 ! A41   A(18,25,27)           109.4712         estimate D2E/DX2                !
 ! A42   A(18,25,28)           109.4712         estimate D2E/DX2                !
 ! A43   A(26,25,27)           109.4713         estimate D2E/DX2                !
 ! A44   A(26,25,28)           109.4712         estimate D2E/DX2                !
 ! A45   A(27,25,28)           109.4712         estimate D2E/DX2                !
 ! A46   A(11,29,30)           109.4712         estimate D2E/DX2                !
 ! A47   A(11,29,31)           109.4712         estimate D2E/DX2                !
 ! A48   A(11,29,32)           109.4712         estimate D2E/DX2                !
 ! A49   A(30,29,31)           109.4713         estimate D2E/DX2                !
 ! A50   A(30,29,32)           109.4712         estimate D2E/DX2                !
 ! A51   A(31,29,32)           109.4712         estimate D2E/DX2                !
 ! A52   A(11,33,34)           109.4712         estimate D2E/DX2                !
 ! A53   A(11,33,35)           109.4712         estimate D2E/DX2                !
 ! A54   A(11,33,36)           109.4712         estimate D2E/DX2                !
 ! A55   A(34,33,35)           109.4713         estimate D2E/DX2                !
 ! A56   A(34,33,36)           109.4712         estimate D2E/DX2                !
 ! A57   A(35,33,36)           109.4712         estimate D2E/DX2                !
 ! D1    D(2,1,3,4)           -179.9995         estimate D2E/DX2                !
 ! D2    D(2,1,3,5)              0.0013         estimate D2E/DX2                !
 ! D3    D(7,1,3,4)              0.0016         estimate D2E/DX2                !
 ! D4    D(7,1,3,5)           -179.9975         estimate D2E/DX2                !
 ! D5    D(2,1,7,8)           -179.9983         estimate D2E/DX2                !
 ! D6    D(2,1,7,9)              0.0006         estimate D2E/DX2                !
 ! D7    D(3,1,7,8)              0.0005         estimate D2E/DX2                !
 ! D8    D(3,1,7,9)            179.9994         estimate D2E/DX2                !
 ! D9    D(1,3,5,6)              0.0016         estimate D2E/DX2                !
 ! D10   D(1,3,5,12)          -179.9999         estimate D2E/DX2                !
 ! D11   D(4,3,5,6)           -179.9975         estimate D2E/DX2                !
 ! D12   D(4,3,5,12)             0.0009         estimate D2E/DX2                !
 ! D13   D(3,5,12,13)            0.0185         estimate D2E/DX2                !
 ! D14   D(3,5,12,14)         -179.9815         estimate D2E/DX2                !
 ! D15   D(6,5,12,13)         -179.9831         estimate D2E/DX2                !
 ! D16   D(6,5,12,14)            0.0169         estimate D2E/DX2                !
 ! D17   D(1,7,9,10)            -0.001          estimate D2E/DX2                !
 ! D18   D(1,7,9,11)           179.9999         estimate D2E/DX2                !
 ! D19   D(8,7,9,10)           179.9978         estimate D2E/DX2                !
 ! D20   D(8,7,9,11)            -0.0012         estimate D2E/DX2                !
 ! D21   D(7,9,11,29)          179.9939         estimate D2E/DX2                !
 ! D22   D(7,9,11,33)           -0.0073         estimate D2E/DX2                !
 ! D23   D(10,9,11,29)          -0.0051         estimate D2E/DX2                !
 ! D24   D(10,9,11,33)         179.9936         estimate D2E/DX2                !
 ! D25   D(9,11,29,30)        -120.0013         estimate D2E/DX2                !
 ! D26   D(9,11,29,31)          -0.0012         estimate D2E/DX2                !
 ! D27   D(9,11,29,32)         119.9987         estimate D2E/DX2                !
 ! D28   D(33,11,29,30)         59.9999         estimate D2E/DX2                !
 ! D29   D(33,11,29,31)        179.9999         estimate D2E/DX2                !
 ! D30   D(33,11,29,32)        -60.0001         estimate D2E/DX2                !
 ! D31   D(9,11,33,34)         -59.9962         estimate D2E/DX2                !
 ! D32   D(9,11,33,35)          60.0038         estimate D2E/DX2                !
 ! D33   D(9,11,33,36)        -179.9962         estimate D2E/DX2                !
 ! D34   D(29,11,33,34)        120.0026         estimate D2E/DX2                !
 ! D35   D(29,11,33,35)       -119.9974         estimate D2E/DX2                !
 ! D36   D(29,11,33,36)          0.0026         estimate D2E/DX2                !
 ! D37   D(5,12,14,15)           0.0            estimate D2E/DX2                !
 ! D38   D(5,12,14,16)         180.0            estimate D2E/DX2                !
 ! D39   D(13,12,14,15)        180.0            estimate D2E/DX2                !
 ! D40   D(13,12,14,16)          0.0            estimate D2E/DX2                !
 ! D41   D(12,14,16,17)         -0.0177         estimate D2E/DX2                !
 ! D42   D(12,14,16,19)        179.9823         estimate D2E/DX2                !
 ! D43   D(15,14,16,17)        179.9823         estimate D2E/DX2                !
 ! D44   D(15,14,16,19)         -0.0177         estimate D2E/DX2                !
 ! D45   D(14,16,19,18)        179.9933         estimate D2E/DX2                !
 ! D46   D(14,16,19,20)          0.0022         estimate D2E/DX2                !
 ! D47   D(17,16,19,18)         -0.0067         estimate D2E/DX2                !
 ! D48   D(17,16,19,20)       -179.9978         estimate D2E/DX2                !
 ! D49   D(21,18,19,16)          0.0071         estimate D2E/DX2                !
 ! D50   D(21,18,19,20)       -180.0            estimate D2E/DX2                !
 ! D51   D(25,18,19,16)        179.9959         estimate D2E/DX2                !
 ! D52   D(25,18,19,20)         -0.0112         estimate D2E/DX2                !
 ! D53   D(19,18,21,22)        -60.1195         estimate D2E/DX2                !
 ! D54   D(19,18,21,23)         59.8805         estimate D2E/DX2                !
 ! D55   D(19,18,21,24)        179.8805         estimate D2E/DX2                !
 ! D56   D(25,18,21,22)        119.8911         estimate D2E/DX2                !
 ! D57   D(25,18,21,23)       -120.1088         estimate D2E/DX2                !
 ! D58   D(25,18,21,24)         -0.1088         estimate D2E/DX2                !
 ! D59   D(19,18,25,26)        121.1731         estimate D2E/DX2                !
 ! D60   D(19,18,25,27)       -118.8269         estimate D2E/DX2                !
 ! D61   D(19,18,25,28)          1.1731         estimate D2E/DX2                !
 ! D62   D(21,18,25,26)        -58.8376         estimate D2E/DX2                !
 ! D63   D(21,18,25,27)         61.1624         estimate D2E/DX2                !
 ! D64   D(21,18,25,28)       -178.8376         estimate D2E/DX2                !
 --------------------------------------------------------------------------------
 Trust Radius=3.00D-01 FncErr=1.00D-07 GrdErr=1.00D-06
 Number of steps in this run=    166 maximum allowed number of steps=    216.
 GradGradGradGradGradGradGradGradGradGradGradGradGradGradGradGradGradGrad

 Leave Link  103 at Tue Jun  8 19:58:33 2021, MaxMem=    33554432 cpu:         0.0
 (Enter /opt/app/gaussian09/e01/g09/l202.exe)
                          Input orientation:                          
 ---------------------------------------------------------------------
 Center     Atomic      Atomic             Coordinates (Angstroms)
 Number     Number       Type             X           Y           Z
 ---------------------------------------------------------------------
      1          6           0       -0.625000   -0.353774    0.000000
      2          1           0       -0.602558   -1.443927    0.000086
      3          6           0        0.581126    0.319497   -0.000058
      4          1           0        0.587196    1.407675   -0.000136
      5          6           0        1.807823   -0.364666   -0.000037
      6          1           0        1.769984   -1.454721    0.000000
      7          6           0       -1.900640    0.264069   -0.000067
      8          1           0       -1.943619    1.348786   -0.000181
      9          6           0       -3.024299   -0.515065   -0.000010
     10          1           0       -2.937507   -1.598876    0.000069
     11          7           0       -4.341131   -0.118210   -0.000057
     12          6           0        3.070772    0.242691   -0.000090
     13          1           0        3.149201    1.309813    0.000147
     14          6           0        4.346136   -0.620470   -0.000489
     15          1           0        4.267706   -1.687592   -0.000726
     16          6           0        5.567449   -0.033136   -0.000541
     17          1           0        5.652217    1.033501   -0.000590
     18          7           0        8.034139   -0.331384   -0.000713
     19          6           0        6.837662   -0.903859   -0.000528
     20          1           0        6.954933   -1.967414   -0.000514
     21          6           0        8.185695    1.130782   -0.000777
     22          1           0        7.722443    1.537338   -0.875425
     23          1           0        7.719064    1.537765    0.871874
     24          1           0        9.225895    1.381541    0.001173
     25          6           0        9.271743   -1.124629   -0.000620
     26          1           0        9.853756   -0.877641   -0.863845
     27          1           0        9.834550   -0.907400    0.883099
     28          1           0        9.027762   -2.166241   -0.021046
     29          6           0       -5.365569   -1.172452   -0.000113
     30          1           0       -5.975851   -1.076701   -0.873776
     31          1           0       -4.890641   -2.131276   -0.000130
     32          1           0       -5.975893   -1.076753    0.873526
     33          6           0       -4.790367    1.281464   -0.000029
     34          1           0       -4.419079    1.775202    0.873623
     35          1           0       -4.419109    1.775227   -0.873680
     36          1           0       -5.859909    1.312774   -0.000010
 ---------------------------------------------------------------------
                    Distance matrix (angstroms):
                    1          2          3          4          5
     1  C    0.000000
     2  H    1.090384   0.000000
     3  C    1.381316   2.123858   0.000000
     4  H    2.138252   3.089846   1.088195   0.000000
     5  C    2.432847   2.640973   1.404587   2.152004   0.000000
     6  H    2.635912   2.372567   2.135704   3.097144   1.090712
     7  C    1.417388   2.145290   2.482385   2.738095   3.761383
     8  H    2.153478   3.098014   2.726495   2.531500   4.124225
     9  C    2.404714   2.593764   3.700754   4.091433   4.834462
    10  H    2.626398   2.340085   4.007609   4.632805   4.903206
    11  N    3.723590   3.966668   4.941680   5.159141   6.153891
    12  C    3.743594   4.042033   2.490830   2.743235   1.401400
    13  H    4.124574   4.653899   2.752405   2.563874   2.145501
    14  C    4.978285   5.016737   3.880572   4.271183   2.551170
    15  H    5.071257   4.876356   4.197533   4.809037   2.793056
    16  C    6.200744   6.329243   4.998776   5.184482   3.774215
    17  H    6.428684   6.727545   5.121110   5.078823   4.090750
    18  N    8.659168   8.708059   7.481380   7.647306   6.226405
    19  C    7.482908   7.459795   6.375017   6.664197   5.058657
    20  H    7.749789   7.575600   6.771660   7.206893   5.390876
    21  C    8.934890   9.157648   7.647722   7.603543   6.550849
    22  H    8.603632   8.885950   7.297110   7.189902   6.274285
    23  H    8.600086   8.882561   7.293463   7.186158   6.270745
    24  H   10.002573  10.226523   8.709763   8.638739   7.620829
    25  C    9.926718   9.879462   8.809785   9.046210   7.502509
    26  H   10.527345  10.507215   9.389405   9.583204   8.108412
    27  H   10.511354  10.488127   9.376092   9.573570   8.093382
    28  H    9.821471   9.657394   8.804828   9.166050   7.441346
    29  C    4.810741   4.770741   6.130994   6.487871   7.218730
    30  H    5.469709   5.456259   6.760673   7.071701   7.864858
    31  H    4.621170   4.342822   5.995542   6.521570   6.927506
    32  H    5.469717   5.456230   6.760707   7.071761   7.864885
    33  C    4.474851   4.996549   5.456952   5.379044   6.800431
    34  H    4.437430   5.068696   5.280572   5.095225   6.642034
    35  H    4.437480   5.068775   5.280598   5.095220   6.642069
    36  H    5.493783   5.936256   6.517172   6.447804   7.849071
                    6          7          8          9         10
     6  H    0.000000
     7  C    4.053112   0.000000
     8  H    4.653010   1.085568   0.000000
     9  C    4.885499   1.367355   2.154486   0.000000
    10  H    4.709698   2.132055   3.110711   1.087281   0.000000
    11  N    6.255557   2.470250   2.810719   1.375333   2.040228
    12  C    2.138517   4.971458   5.134935   6.141993   6.284169
    13  H    3.089480   5.156983   5.092969   6.437568   6.745998
    14  C    2.707865   6.309090   6.590826   7.371188   7.349063
    15  H    2.508555   6.469736   6.913766   7.385673   7.205760
    16  C    4.054829   7.474000   7.637136   8.605253   8.647879
    17  H    4.611180   7.591948   7.602376   8.813625   8.984028
    18  N    6.364081   9.952608  10.118232  11.059963  11.044616
    19  C    5.097529   8.816007   9.065611   9.869622   9.799846
    20  H    5.210235   9.132398   9.496390  10.084364   9.899303
    21  C    6.917093  10.123505  10.131660  11.330171  11.453238
    22  H    6.719416   9.746343   9.707439  10.975936  11.146159
    23  H    6.716151   9.742756   9.703795  10.972426  11.142758
    24  H    7.977155  11.182510  11.169562  12.396144  12.523228
    25  C    7.509018  11.258358  11.484865  12.311142  12.218457
    26  H    8.150253  11.841260  12.036650  12.912086  12.840675
    27  H    8.131215  11.826538  12.024801  12.895108  12.821206
    28  H    7.292602  11.195393  11.520723  12.164662  11.978732
    29  C    7.141134   3.750910   4.250457   2.431811   2.465222
    30  H    7.804123   4.378170   4.785922   3.128987   3.204342
    31  H    6.694898   3.831160   4.560239   2.468881   2.024397
    32  H    7.804135   4.378203   4.786005   3.128972   3.204268
    33  C    7.108088   3.063595   2.847544   2.519229   3.424828
    34  H    7.035631   3.064211   2.659561   2.820277   3.787156
    35  H    7.035677   3.064227   2.659493   2.820324   3.787235
    36  H    8.116298   4.095802   3.916456   3.373674   4.125304
                   11         12         13         14         15
    11  N    0.000000
    12  C    7.420684   0.000000
    13  H    7.625243   1.070000   0.000000
    14  C    8.701774   1.540000   2.271265   0.000000
    15  H    8.750717   2.271265   3.199295   1.070000   0.000000
    16  C    9.908945   2.511867   2.766123   1.355200   2.103938
    17  H   10.059495   2.699859   2.518221   2.107479   3.053066
    18  N   12.377106   4.996456   5.153265   3.699316   4.003163
    19  C   11.206367   3.937517   4.301754   2.507591   2.686802
    20  H   11.446424   4.468923   5.022331   2.935998   2.701757
    21  C   12.588938   5.191450   5.039675   4.220083   4.826372
    22  H   12.208068   4.907175   4.661860   4.101354   4.806296
    23  H   12.204541   4.903484   4.657845   4.098249   4.803772
    24  H   13.649669   6.259595   6.077118   5.274477   5.831228
    25  C   13.650026   6.349929   6.588780   4.951341   5.035604
    26  H   14.241407   6.928931   7.105103   5.580807   5.710074
    27  H   14.225074   6.917473   7.098558   5.566485   5.690307
    28  H   13.524873   6.425662   6.829413   4.930259   4.784104
    29  C    1.470000   8.554208   8.869213   9.727378   9.647039
    30  H    2.086720   9.183981   9.472368  10.368904  10.298828
    31  H    2.086720   8.307817   8.745294   9.359518   9.169089
    32  H    2.086720   9.184024   9.472372  10.369010  10.298970
    33  C    1.470000   7.929474   7.939619   9.332365   9.532261
    34  H    2.086720   7.694792   7.632719   9.128652   9.392319
    35  H    2.086720   7.694813   7.632792   9.128600   9.392227
    36  H    2.086720   8.994562   9.009111  10.387530  10.562708
                   16         17         18         19         20
    16  C    0.000000
    17  H    1.070000   0.000000
    18  N    2.484655   2.745262   0.000000
    19  C    1.540000   2.271265   1.326381   0.000000
    20  H    2.380450   3.271476   1.959918   1.070000   0.000000
    21  C    2.865296   2.535345   1.470000   2.440689   3.333706
    22  H    2.806388   2.303264   2.086720   2.740024   3.692943
    23  H    2.803263   2.299420   2.086720   2.738519   3.692050
    24  H    3.922441   3.590587   2.086720   3.305559   4.046328
    25  C    3.861755   4.214082   1.470000   2.444072   2.465338
    26  H    4.453191   4.695807   2.086720   3.137328   3.214984
    27  H    4.444470   4.694669   2.086720   3.124444   3.193211
    28  H    4.065012   4.651137   2.086720   2.527957   2.082444
    29  C   10.992221  11.236451  13.426078  12.206186  12.346122
    30  H   11.623224  11.850205  14.056939  12.844397  12.990809
    31  H   10.666482  11.007619  13.049504  11.792355  11.846708
    32  H   11.623333  11.850325  14.057058  12.844495  12.990901
    33  C   10.440907  10.445528  12.925527  11.831598  12.186357
    34  H   10.186510  10.136339  12.660363  11.604125  12.005808
    35  H   10.186456  10.136274  12.660303  11.604085  12.005775
    36  H   11.506345  11.515513  13.990991  12.889599  13.227994
                   21         22         23         24         25
    21  C    0.000000
    22  H    1.070000   0.000000
    23  H    1.070000   1.747303   0.000000
    24  H    1.070000   1.747303   1.747303   0.000000
    25  C    2.503273   3.201825   3.203185   2.506590   0.000000
    26  H    2.749741   3.220986   3.661122   2.499274   1.070000
    27  H    2.766613   3.678335   3.233302   2.527351   1.070000
    28  H    3.402918   4.018746   4.028605   3.553380   1.070000
    29  C   13.745605  13.394222  13.390790  14.813295  14.637390
    30  H   14.359126  13.945482  14.051100  15.424058  15.272649
    31  H   13.477077  13.164907  13.161570  14.547044  14.198115
    32  H   14.359255  14.054776  13.942294  15.423961  15.272748
    33  C   12.976938  12.546004  12.542399  14.016620  14.266472
    34  H   12.651489  12.269160  12.140465  13.678503  14.021837
    35  H   12.651418  12.143883  12.265341  13.678688  14.021798
    36  H   14.046784  13.612387  13.608795  15.085961  15.326703
                   26         27         28         29         30
    26  H    0.000000
    27  H    1.747303   0.000000
    28  H    1.747303   1.747303   0.000000
    29  C   15.246665  15.228064  14.427613   0.000000
    30  H   15.830861  15.908616  15.067271   1.070000   0.000000
    31  H   14.822782  14.802339  13.918463   1.070000   1.747303
    32  H   15.925951  15.811353  15.069735   1.070000   1.747303
    33  C   14.827618  14.814157  14.241763   2.520429   2.780242
    34  H   14.620881  14.503874  14.041116   3.216819   3.689213
    35  H   14.517317  14.609913  14.038537   3.216786   3.249143
    36  H   15.889097  15.875299  15.288778   2.533914   2.546861
                   31         32         33         34         35
    31  H    0.000000
    32  H    1.747303   0.000000
    33  C    3.414213   2.780244   0.000000
    34  H    4.030681   3.249203   1.070000   0.000000
    35  H    4.030657   3.689186   1.070000   1.747303   0.000000
    36  H    3.577843   2.546832   1.070000   1.747303   1.747303
                   36
    36  H    0.000000
 Stoichiometry    C13H21N2(1+)
 Framework group  C1[X(C13H21N2)]
 Deg. of freedom   102
 Full point group                 C1      NOp   1
 Largest Abelian subgroup         C1      NOp   1
 Largest concise Abelian subgroup C1      NOp   1
                         Standard orientation:                         
 ---------------------------------------------------------------------
 Center     Atomic      Atomic             Coordinates (Angstroms)
 Number     Number       Type             X           Y           Z
 ---------------------------------------------------------------------
      1          6           0       -2.465165   -0.250835    0.000283
      2          1           0       -2.424812   -1.340472    0.000369
      3          6           0       -1.270265    0.442165    0.000225
      4          1           0       -1.282077    1.530295    0.000147
      5          6           0       -0.032491   -0.221749    0.000246
      6          1           0       -0.052413   -1.312278    0.000283
      7          6           0       -3.750785    0.345963    0.000216
      8          1           0       -3.811583    1.429827    0.000102
      9          6           0       -4.861489   -0.451531    0.000273
     10          1           0       -4.756900   -1.533769    0.000352
     11          7           0       -6.184665   -0.076368    0.000226
     12          6           0        1.220307    0.406279    0.000193
     13          1           0        1.281190    1.474546    0.000430
     14          6           0        2.509682   -0.435808   -0.000206
     15          1           0        2.448799   -1.504074   -0.000443
     16          6           0        3.721179    0.171516   -0.000257
     17          1           0        3.788408    1.239402   -0.000307
     18          7           0        6.192437   -0.086158   -0.000430
     19          6           0        5.005529   -0.678217   -0.000245
     20          1           0        5.140261   -1.739701   -0.000230
     21          6           0        6.319946    1.378301   -0.000494
     22          1           0        5.850076    1.777190   -0.875142
     23          1           0        5.846690    1.777561    0.872158
     24          1           0        7.355885    1.646120    0.001457
     25          6           0        7.442909   -0.858959   -0.000337
     26          1           0        8.020785   -0.602440   -0.863562
     27          1           0        8.002071   -0.632511    0.883382
     28          1           0        7.216077   -1.904440   -0.020763
     29          6           0       -7.191641   -1.147302    0.000170
     30          1           0       -7.803414   -1.061592   -0.873493
     31          1           0       -6.701021   -2.098193    0.000154
     32          1           0       -7.803455   -1.061645    0.873810
     33          6           0       -6.656841    1.315735    0.000254
     34          1           0       -6.293715    1.815507    0.873906
     35          1           0       -6.293747    1.815531   -0.873397
     36          1           0       -7.726753    1.329465    0.000274
 ---------------------------------------------------------------------
 Rotational constants (GHZ):      3.6015745      0.0974249      0.0950786
 Leave Link  202 at Tue Jun  8 19:58:33 2021, MaxMem=    33554432 cpu:         0.0
 (Enter /opt/app/gaussian09/e01/g09/l301.exe)
 Standard basis: 6-31G(d,p) (6D, 7F)
 Ernie: Thresh=  0.10000D-02 Tol=  0.10000D-05 Strict=F.
 There are   330 symmetry adapted cartesian basis functions of A   symmetry.
 There are   330 symmetry adapted basis functions of A   symmetry.
   330 basis functions,   567 primitive gaussians,   330 cartesian basis functions
    56 alpha electrons       56 beta electrons
       nuclear repulsion energy       833.0432027875 Hartrees.
 IExCor=  402 DFT=T Ex+Corr=B3LYP ExCW=0 ScaHFX=  0.200000
 ScaDFX=  0.800000  0.720000  1.000000  0.810000 ScalE2=  1.000000  1.000000
 IRadAn=      0 IRanWt=     -1 IRanGd=            0 ICorTp=0 IEmpDi=  4
 NAtoms=   36 NActive=   36 NUniq=   36 SFac= 1.00D+00 NAtFMM=   60 NAOKFM=F Big=F
 Integral buffers will be    131072 words long.
 Raffenetti 2 integral format.
 Two-electron integral symmetry is turned on.
 Leave Link  301 at Tue Jun  8 19:58:33 2021, MaxMem=    33554432 cpu:         0.1
 (Enter /opt/app/gaussian09/e01/g09/l302.exe)
 NPDir=0 NMtPBC=     1 NCelOv=     1 NCel=       1 NClECP=     1 NCelD=      1
         NCelK=      1 NCelE2=     1 NClLst=     1 CellRange=     0.0.
 One-electron integrals computed using PRISM.
 NBasis=   330 RedAO= T EigKep=  1.38D-03  NBF=   330
 NBsUse=   330 1.00D-06 EigRej= -1.00D+00 NBFU=   330
 Precomputing XC quadrature grid using
 IXCGrd= 4 IRadAn=           0 IRanWt=          -1 IRanGd=           0 AccXCQ= 0.00D+00.
 Generated NRdTot=       0 NPtTot=           0 NUsed=           0 NTot=          32
 NSgBfM=   314   314   314   314   314 MxSgAt=    36 MxSgA2=    36.
 Leave Link  302 at Tue Jun  8 19:58:34 2021, MaxMem=    33554432 cpu:         1.0
 (Enter /opt/app/gaussian09/e01/g09/l303.exe)
 DipDrv:  MaxL=1.
 Leave Link  303 at Tue Jun  8 19:58:36 2021, MaxMem=    33554432 cpu:         0.1
 (Enter /opt/app/gaussian09/e01/g09/l401.exe)
 ExpMin= 1.61D-01 ExpMax= 4.17D+03 ExpMxC= 6.27D+02 IAcc=1 IRadAn=         1 AccDes= 0.00D+00
 Harris functional with IExCor=  402 and IRadAn=       1 diagonalized for initial guess.
 HarFok:  IExCor=  402 AccDes= 0.00D+00 IRadAn=         1 IDoV= 1 UseB2=F ITyADJ=14
 ICtDFT=  3500011 ScaDFX=  1.000000  1.000000  1.000000  1.000000
 FoFCou: FMM=F IPFlag=           0 FMFlag=      100000 FMFlg1=           0
         NFxFlg=           0 DoJE=T BraDBF=F KetDBF=T FulRan=T
         wScrn=  0.000000 ICntrl=     500 IOpCl=  0 I1Cent=   200000004 NGrid=           0
         NMat0=    1 NMatS0=      1 NMatT0=    0 NMatD0=    1 NMtDS0=    0 NMtDT0=    0
 Petite list used in FoFCou.
 Harris En= -617.332108697396    
 JPrj=0 DoOrth=F DoCkMO=F.
 Leave Link  401 at Tue Jun  8 19:58:40 2021, MaxMem=    33554432 cpu:         3.6
 (Enter /opt/app/gaussian09/e01/g09/l502.exe)
 Closed shell SCF:
 Using DIIS extrapolation, IDIIS=  1040.
 Integral symmetry usage will be decided dynamically.
 IVT=      349735 IEndB=      349735 NGot=    33554432 MDV=    33330568
 LenX=    33330568 LenY=    33221227
 Requested convergence on RMS density matrix=1.00D-08 within 128 cycles.
 Requested convergence on MAX density matrix=1.00D-06.
 Requested convergence on             energy=1.00D-06.
 No special actions if energy rises.
 Fock matrices will be formed incrementally for  20 cycles.
 Integral accuracy reduced to 1.0D-05 until final iterations.

 Cycle   1  Pass 0  IDiag  1:
 FoFJK:  IHMeth= 1 ICntrl=       0 DoSepK=F KAlg= 0 I1Cent=   0 FoldK=F
 IRaf= 560000000 NMat=   1 IRICut=       1 DoRegI=T DoRafI=F ISym2E= 0.
 FoFCou: FMM=F IPFlag=           0 FMFlag=      100000 FMFlg1=           0
         NFxFlg=           0 DoJE=F BraDBF=F KetDBF=F FulRan=T
         wScrn=  0.000000 ICntrl=       0 IOpCl=  0 I1Cent=           0 NGrid=           0
         NMat0=    1 NMatS0=      1 NMatT0=    0 NMatD0=    1 NMtDS0=    0 NMtDT0=    0
 Symmetry not used in FoFCou.
 E= -616.882594580012    
 DIIS: error= 3.48D-02 at cycle   1 NSaved=   1.
 NSaved= 1 IEnMin= 1 EnMin= -616.882594580012     IErMin= 1 ErrMin= 3.48D-02
 ErrMax= 3.48D-02  0.00D+00 EMaxC= 1.00D-01 BMatC= 3.54D-01 BMatP= 3.54D-01
 IDIUse=3 WtCom= 6.52D-01 WtEn= 3.48D-01
 Coeff-Com:  0.100D+01
 Coeff-En:   0.100D+01
 Coeff:      0.100D+01
 Gap=     0.057 Goal=   None    Shift=    0.000
 GapD=    0.057 DampG=0.500 DampE=0.500 DampFc=0.2500 IDamp=-1.
 Damping current iteration by 2.50D-01
 RMSDP=5.03D-03 MaxDP=2.35D-01              OVMax= 6.13D-01

 Cycle   2  Pass 0  IDiag  1:
 RMSU=  1.24D-03    CP:  9.87D-01
 E= -617.003811229215     Delta-E=       -0.121216649202 Rises=F Damp=T
 DIIS: error= 1.74D-02 at cycle   2 NSaved=   2.
 NSaved= 2 IEnMin= 2 EnMin= -617.003811229215     IErMin= 2 ErrMin= 1.74D-02
 ErrMax= 1.74D-02  0.00D+00 EMaxC= 1.00D-01 BMatC= 9.46D-02 BMatP= 3.54D-01
 IDIUse=3 WtCom= 8.26D-01 WtEn= 1.74D-01
 Coeff-Com: -0.526D+00 0.153D+01
 Coeff-En:   0.000D+00 0.100D+01
 Coeff:     -0.434D+00 0.143D+01
 Gap=     0.012 Goal=   None    Shift=    0.000
 RMSDP=2.02D-03 MaxDP=1.01D-01 DE=-1.21D-01 OVMax= 7.80D-01

 Cycle   3  Pass 0  IDiag  1:
 RMSU=  1.98D-03    CP:  9.65D-01  8.10D-01
 E= -617.084602789042     Delta-E=       -0.080791559828 Rises=F Damp=F
 DIIS: error= 1.92D-02 at cycle   3 NSaved=   3.
 NSaved= 3 IEnMin= 3 EnMin= -617.084602789042     IErMin= 2 ErrMin= 1.74D-02
 ErrMax= 1.92D-02  0.00D+00 EMaxC= 1.00D-01 BMatC= 1.40D-01 BMatP= 9.46D-02
 IDIUse=2 WtCom= 0.00D+00 WtEn= 1.00D+00
 Coeff-En:   0.000D+00 0.335D+00 0.665D+00
 Coeff:      0.000D+00 0.335D+00 0.665D+00
 Gap=     0.152 Goal=   None    Shift=    0.000
 RMSDP=4.12D-03 MaxDP=3.02D-01 DE=-8.08D-02 OVMax= 6.03D-01

 Cycle   4  Pass 0  IDiag  1:
 RMSU=  1.35D-03    CP:  9.60D-01  3.00D+00 -3.76D-01
 E= -616.262589052150     Delta-E=        0.822013736893 Rises=F Damp=F
 DIIS: error= 4.12D-02 at cycle   4 NSaved=   4.
 NSaved= 4 IEnMin= 3 EnMin= -617.084602789042     IErMin= 2 ErrMin= 1.74D-02
 ErrMax= 4.12D-02  0.00D+00 EMaxC= 1.00D-01 BMatC= 6.14D-01 BMatP= 9.46D-02
 IDIUse=2 WtCom= 0.00D+00 WtEn= 1.00D+00
 Coeff-En:   0.000D+00 0.000D+00 0.759D+00 0.241D+00
 Coeff:      0.000D+00 0.000D+00 0.759D+00 0.241D+00
 Gap=     0.045 Goal=   None    Shift=    0.000
 RMSDP=2.96D-03 MaxDP=2.34D-01 DE= 8.22D-01 OVMax= 7.64D-01

 Cycle   5  Pass 0  IDiag  1:
 RMSU=  1.16D-03    CP:  9.74D-01  1.36D+00  2.03D-01  4.68D-02
 E= -617.244953019463     Delta-E=       -0.982363967314 Rises=F Damp=F
 DIIS: error= 8.31D-03 at cycle   5 NSaved=   5.
 NSaved= 5 IEnMin= 5 EnMin= -617.244953019463     IErMin= 5 ErrMin= 8.31D-03
 ErrMax= 8.31D-03  0.00D+00 EMaxC= 1.00D-01 BMatC= 3.26D-02 BMatP= 9.46D-02
 IDIUse=3 WtCom= 9.17D-01 WtEn= 8.31D-02
 Coeff-Com: -0.187D+00 0.375D+00 0.337D+00 0.420D-02 0.471D+00
 Coeff-En:   0.000D+00 0.000D+00 0.187D+00 0.000D+00 0.813D+00
 Coeff:     -0.172D+00 0.343D+00 0.325D+00 0.385D-02 0.499D+00
 Gap=     0.075 Goal=   None    Shift=    0.000
 RMSDP=7.74D-04 MaxDP=3.50D-02 DE=-9.82D-01 OVMax= 1.14D-01

 Cycle   6  Pass 0  IDiag  1:
 RMSU=  4.88D-04    CP:  9.71D-01  1.16D+00  4.30D-01  5.99D-03  7.37D-01
 E= -617.275545307547     Delta-E=       -0.030592288083 Rises=F Damp=F
 DIIS: error= 5.57D-03 at cycle   6 NSaved=   6.
 NSaved= 6 IEnMin= 6 EnMin= -617.275545307547     IErMin= 6 ErrMin= 5.57D-03
 ErrMax= 5.57D-03  0.00D+00 EMaxC= 1.00D-01 BMatC= 6.26D-03 BMatP= 3.26D-02
 IDIUse=3 WtCom= 9.44D-01 WtEn= 5.57D-02
 Coeff-Com: -0.154D+00 0.246D+00 0.126D+00-0.360D-01 0.340D+00 0.479D+00
 Coeff-En:   0.000D+00 0.000D+00 0.000D+00 0.000D+00 0.145D+00 0.855D+00
 Coeff:     -0.146D+00 0.233D+00 0.119D+00-0.340D-01 0.329D+00 0.499D+00
 Gap=     0.081 Goal=   None    Shift=    0.000
 RMSDP=3.59D-04 MaxDP=2.68D-02 DE=-3.06D-02 OVMax= 6.29D-02

 Cycle   7  Pass 0  IDiag  1:
 RMSU=  1.69D-04    CP:  9.71D-01  1.23D+00  4.26D-01 -5.61D-02  8.00D-01
                    CP:  4.15D-01
 E= -617.282144650283     Delta-E=       -0.006599342736 Rises=F Damp=F
 DIIS: error= 2.06D-03 at cycle   7 NSaved=   7.
 NSaved= 7 IEnMin= 7 EnMin= -617.282144650283     IErMin= 7 ErrMin= 2.06D-03
 ErrMax= 2.06D-03  0.00D+00 EMaxC= 1.00D-01 BMatC= 7.34D-04 BMatP= 6.26D-03
 IDIUse=3 WtCom= 9.79D-01 WtEn= 2.06D-02
 Coeff-Com: -0.341D-01 0.460D-01 0.136D-01-0.841D-02 0.939D-01 0.303D+00
 Coeff-Com:  0.586D+00
 Coeff-En:   0.000D+00 0.000D+00 0.000D+00 0.000D+00 0.000D+00 0.119D+00
 Coeff-En:   0.881D+00
 Coeff:     -0.334D-01 0.451D-01 0.133D-01-0.824D-02 0.920D-01 0.300D+00
 Coeff:      0.592D+00
 Gap=     0.081 Goal=   None    Shift=    0.000
 RMSDP=1.22D-04 MaxDP=8.09D-03 DE=-6.60D-03 OVMax= 2.97D-02

 Cycle   8  Pass 0  IDiag  1:
 RMSU=  5.81D-05    CP:  9.71D-01  1.23D+00  4.11D-01 -3.89D-02  8.07D-01
                    CP:  5.94D-01  7.15D-01
 E= -617.282958503932     Delta-E=       -0.000813853649 Rises=F Damp=F
 DIIS: error= 6.09D-04 at cycle   8 NSaved=   8.
 NSaved= 8 IEnMin= 8 EnMin= -617.282958503932     IErMin= 8 ErrMin= 6.09D-04
 ErrMax= 6.09D-04  0.00D+00 EMaxC= 1.00D-01 BMatC= 8.76D-05 BMatP= 7.34D-04
 IDIUse=3 WtCom= 9.94D-01 WtEn= 6.09D-03
 Coeff-Com: -0.310D-02 0.358D-02-0.955D-02-0.478D-03-0.139D-03 0.126D+00
 Coeff-Com:  0.380D+00 0.504D+00
 Coeff-En:   0.000D+00 0.000D+00 0.000D+00 0.000D+00 0.000D+00 0.000D+00
 Coeff-En:   0.361D-01 0.964D+00
 Coeff:     -0.308D-02 0.355D-02-0.949D-02-0.475D-03-0.138D-03 0.125D+00
 Coeff:      0.378D+00 0.507D+00
 Gap=     0.081 Goal=   None    Shift=    0.000
 RMSDP=3.23D-05 MaxDP=1.94D-03 DE=-8.14D-04 OVMax= 6.28D-03

 Cycle   9  Pass 0  IDiag  1:
 RMSU=  1.55D-05    CP:  9.71D-01  1.22D+00  4.15D-01 -4.17D-02  8.03D-01
                    CP:  5.83D-01  8.18D-01  7.12D-01
 E= -617.283047269860     Delta-E=       -0.000088765928 Rises=F Damp=F
 DIIS: error= 7.20D-05 at cycle   9 NSaved=   9.
 NSaved= 9 IEnMin= 9 EnMin= -617.283047269860     IErMin= 9 ErrMin= 7.20D-05
 ErrMax= 7.20D-05  0.00D+00 EMaxC= 1.00D-01 BMatC= 3.01D-06 BMatP= 8.76D-05
 IDIUse=1 WtCom= 1.00D+00 WtEn= 0.00D+00
 Coeff-Com: -0.826D-03 0.136D-02-0.601D-02 0.871D-04-0.618D-02 0.476D-01
 Coeff-Com:  0.150D+00 0.222D+00 0.592D+00
 Coeff:     -0.826D-03 0.136D-02-0.601D-02 0.871D-04-0.618D-02 0.476D-01
 Coeff:      0.150D+00 0.222D+00 0.592D+00
 Gap=     0.081 Goal=   None    Shift=    0.000
 RMSDP=9.38D-06 MaxDP=4.39D-04 DE=-8.88D-05 OVMax= 1.54D-03

 Initial convergence to 1.0D-05 achieved.  Increase integral accuracy.
 Cycle  10  Pass 1  IDiag  1:
 E= -617.283069874639     Delta-E=       -0.000022604779 Rises=F Damp=F
 DIIS: error= 6.97D-05 at cycle   1 NSaved=   1.
 NSaved= 1 IEnMin= 1 EnMin= -617.283069874639     IErMin= 1 ErrMin= 6.97D-05
 ErrMax= 6.97D-05  0.00D+00 EMaxC= 1.00D-01 BMatC= 1.41D-06 BMatP= 1.41D-06
 IDIUse=1 WtCom= 1.00D+00 WtEn= 0.00D+00
 Coeff-Com:  0.100D+01
 Coeff:      0.100D+01
 Gap=     0.081 Goal=   None    Shift=    0.000
 RMSDP=9.38D-06 MaxDP=4.39D-04 DE=-2.26D-05 OVMax= 1.41D-03

 Cycle  11  Pass 1  IDiag  1:
 RMSU=  1.25D-05    CP:  1.00D+00
 E= -617.283064926851     Delta-E=        0.000004947788 Rises=F Damp=F
 DIIS: error= 1.36D-04 at cycle   2 NSaved=   2.
 NSaved= 2 IEnMin= 1 EnMin= -617.283069874639     IErMin= 1 ErrMin= 6.97D-05
 ErrMax= 1.36D-04  0.00D+00 EMaxC= 1.00D-01 BMatC= 5.64D-06 BMatP= 1.41D-06
 IDIUse=3 WtCom= 4.62D-01 WtEn= 5.38D-01
 Coeff-Com:  0.672D+00 0.328D+00
 Coeff-En:   0.755D+00 0.245D+00
 Coeff:      0.716D+00 0.284D+00
 Gap=     0.081 Goal=   None    Shift=    0.000
 RMSDP=7.18D-06 MaxDP=3.81D-04 DE= 4.95D-06 OVMax= 1.02D-03

 Cycle  12  Pass 1  IDiag  1:
 RMSU=  3.59D-06    CP:  1.00D+00  5.03D-01
 E= -617.283071480668     Delta-E=       -0.000006553817 Rises=F Damp=F
 DIIS: error= 1.47D-05 at cycle   3 NSaved=   3.
 NSaved= 3 IEnMin= 3 EnMin= -617.283071480668     IErMin= 3 ErrMin= 1.47D-05
 ErrMax= 1.47D-05  0.00D+00 EMaxC= 1.00D-01 BMatC= 9.22D-08 BMatP= 1.41D-06
 IDIUse=1 WtCom= 1.00D+00 WtEn= 0.00D+00
 Coeff-Com:  0.247D+00 0.462D-01 0.706D+00
 Coeff:      0.247D+00 0.462D-01 0.706D+00
 Gap=     0.081 Goal=   None    Shift=    0.000
 RMSDP=1.19D-06 MaxDP=9.70D-05 DE=-6.55D-06 OVMax= 1.05D-04

 Cycle  13  Pass 1  IDiag  1:
 RMSU=  1.07D-06    CP:  1.00D+00  4.65D-01  1.05D+00
 E= -617.283071540168     Delta-E=       -0.000000059500 Rises=F Damp=F
 DIIS: error= 1.39D-05 at cycle   4 NSaved=   4.
 NSaved= 4 IEnMin= 4 EnMin= -617.283071540168     IErMin= 4 ErrMin= 1.39D-05
 ErrMax= 1.39D-05  0.00D+00 EMaxC= 1.00D-01 BMatC= 3.68D-08 BMatP= 9.22D-08
 IDIUse=1 WtCom= 1.00D+00 WtEn= 0.00D+00
 Coeff-Com: -0.126D-01-0.629D-01 0.552D+00 0.523D+00
 Coeff:     -0.126D-01-0.629D-01 0.552D+00 0.523D+00
 Gap=     0.081 Goal=   None    Shift=    0.000
 RMSDP=7.06D-07 MaxDP=5.89D-05 DE=-5.95D-08 OVMax= 1.37D-04

 Cycle  14  Pass 1  IDiag  1:
 RMSU=  3.29D-07    CP:  1.00D+00  4.57D-01  1.13D+00  4.87D-01
 E= -617.283071575681     Delta-E=       -0.000000035512 Rises=F Damp=F
 DIIS: error= 2.11D-06 at cycle   5 NSaved=   5.
 NSaved= 5 IEnMin= 5 EnMin= -617.283071575681     IErMin= 5 ErrMin= 2.11D-06
 ErrMax= 2.11D-06  0.00D+00 EMaxC= 1.00D-01 BMatC= 1.97D-09 BMatP= 3.68D-08
 IDIUse=1 WtCom= 1.00D+00 WtEn= 0.00D+00
 Coeff-Com: -0.139D-01-0.365D-01 0.292D+00 0.313D+00 0.446D+00
 Coeff:     -0.139D-01-0.365D-01 0.292D+00 0.313D+00 0.446D+00
 Gap=     0.081 Goal=   None    Shift=    0.000
 RMSDP=1.91D-07 MaxDP=8.27D-06 DE=-3.55D-08 OVMax= 3.33D-05

 Cycle  15  Pass 1  IDiag  1:
 RMSU=  1.27D-07    CP:  1.00D+00  4.58D-01  1.13D+00  5.48D-01  6.16D-01
 E= -617.283071577767     Delta-E=       -0.000000002086 Rises=F Damp=F
 DIIS: error= 9.95D-07 at cycle   6 NSaved=   6.
 NSaved= 6 IEnMin= 6 EnMin= -617.283071577767     IErMin= 6 ErrMin= 9.95D-07
 ErrMax= 9.95D-07  0.00D+00 EMaxC= 1.00D-01 BMatC= 2.17D-10 BMatP= 1.97D-09
 IDIUse=1 WtCom= 1.00D+00 WtEn= 0.00D+00
 Coeff-Com: -0.761D-02-0.113D-01 0.794D-01 0.101D+00 0.276D+00 0.562D+00
 Coeff:     -0.761D-02-0.113D-01 0.794D-01 0.101D+00 0.276D+00 0.562D+00
 Gap=     0.081 Goal=   None    Shift=    0.000
 RMSDP=7.04D-08 MaxDP=3.15D-06 DE=-2.09D-09 OVMax= 1.50D-05

 Cycle  16  Pass 1  IDiag  1:
 RMSU=  4.00D-08    CP:  1.00D+00  4.58D-01  1.13D+00  5.34D-01  7.58D-01
                    CP:  7.79D-01
 E= -617.283071577997     Delta-E=       -0.000000000230 Rises=F Damp=F
 DIIS: error= 3.85D-07 at cycle   7 NSaved=   7.
 NSaved= 7 IEnMin= 7 EnMin= -617.283071577997     IErMin= 7 ErrMin= 3.85D-07
 ErrMax= 3.85D-07  0.00D+00 EMaxC= 1.00D-01 BMatC= 3.25D-11 BMatP= 2.17D-10
 IDIUse=1 WtCom= 1.00D+00 WtEn= 0.00D+00
 Coeff-Com: -0.191D-02 0.116D-02-0.158D-01-0.252D-02 0.973D-01 0.337D+00
 Coeff-Com:  0.584D+00
 Coeff:     -0.191D-02 0.116D-02-0.158D-01-0.252D-02 0.973D-01 0.337D+00
 Coeff:      0.584D+00
 Gap=     0.081 Goal=   None    Shift=    0.000
 RMSDP=3.38D-08 MaxDP=1.15D-06 DE=-2.30D-10 OVMax= 7.86D-06

 Cycle  17  Pass 1  IDiag  1:
 RMSU=  1.74D-08    CP:  1.00D+00  4.58D-01  1.13D+00  5.44D-01  7.44D-01
                    CP:  9.05D-01  4.76D-01
 E= -617.283071578025     Delta-E=       -0.000000000028 Rises=F Damp=F
 DIIS: error= 2.44D-07 at cycle   8 NSaved=   8.
 NSaved= 8 IEnMin= 8 EnMin= -617.283071578025     IErMin= 8 ErrMin= 2.44D-07
 ErrMax= 2.44D-07  0.00D+00 EMaxC= 1.00D-01 BMatC= 7.78D-12 BMatP= 3.25D-11
 IDIUse=1 WtCom= 1.00D+00 WtEn= 0.00D+00
 Coeff-Com: -0.193D-03 0.186D-02-0.167D-01-0.111D-01 0.320D-01 0.123D+00
 Coeff-Com:  0.387D+00 0.484D+00
 Coeff:     -0.193D-03 0.186D-02-0.167D-01-0.111D-01 0.320D-01 0.123D+00
 Coeff:      0.387D+00 0.484D+00
 Gap=     0.081 Goal=   None    Shift=    0.000
 RMSDP=1.43D-08 MaxDP=6.10D-07 DE=-2.80D-11 OVMax= 3.37D-06

 Cycle  18  Pass 1  IDiag  1:
 RMSU=  4.93D-09    CP:  1.00D+00  4.58D-01  1.13D+00  5.42D-01  7.63D-01
                    CP:  8.81D-01  6.59D-01  5.02D-01
 E= -617.283071578026     Delta-E=       -0.000000000001 Rises=F Damp=F
 DIIS: error= 6.48D-08 at cycle   9 NSaved=   9.
 NSaved= 9 IEnMin= 9 EnMin= -617.283071578026     IErMin= 9 ErrMin= 6.48D-08
 ErrMax= 6.48D-08  0.00D+00 EMaxC= 1.00D-01 BMatC= 7.64D-13 BMatP= 7.78D-12
 IDIUse=1 WtCom= 1.00D+00 WtEn= 0.00D+00
 Coeff-Com:  0.128D-03 0.106D-02-0.876D-02-0.674D-02 0.104D-01 0.353D-01
 Coeff-Com:  0.184D+00 0.294D+00 0.490D+00
 Coeff:      0.128D-03 0.106D-02-0.876D-02-0.674D-02 0.104D-01 0.353D-01
 Coeff:      0.184D+00 0.294D+00 0.490D+00
 Gap=     0.081 Goal=   None    Shift=    0.000
 RMSDP=3.46D-09 MaxDP=2.94D-07 DE=-1.36D-12 OVMax= 6.96D-07

 SCF Done:  E(RB3LYP) =  -617.283071578     A.U. after   18 cycles
            NFock= 18  Conv=0.35D-08     -V/T= 2.0101
 KE= 6.110897268982D+02 PE=-3.080800151496D+03 EE= 1.019384150232D+03
 Leave Link  502 at Tue Jun  8 20:03:22 2021, MaxMem=    33554432 cpu:       265.7
 (Enter /opt/app/gaussian09/e01/g09/l601.exe)
 Copying SCF densities to generalized density rwf, IOpCl= 0 IROHF=0.

 **********************************************************************

            Population analysis using the SCF density.

 **********************************************************************

 Orbital symmetries:
       Occupied  (A) (A) (A) (A) (A) (A) (A) (A) (A) (A) (A) (A)
                 (A) (A) (A) (A) (A) (A) (A) (A) (A) (A) (A) (A)
                 (A) (A) (A) (A) (A) (A) (A) (A) (A) (A) (A) (A)
                 (A) (A) (A) (A) (A) (A) (A) (A) (A) (A) (A) (A)
                 (A) (A) (A) (A) (A) (A) (A) (A)
       Virtual   (A) (A) (A) (A) (A) (A) (A) (A) (A) (A) (A) (A)
                 (A) (A) (A) (A) (A) (A) (A) (A) (A) (A) (A) (A)
                 (A) (A) (A) (A) (A) (A) (A) (A) (A) (A) (A) (A)
                 (A) (A) (A) (A) (A) (A) (A) (A) (A) (A) (A) (A)
                 (A) (A) (A) (A) (A) (A) (A) (A) (A) (A) (A) (A)
                 (A) (A) (A) (A) (A) (A) (A) (A) (A) (A) (A) (A)
                 (A) (A) (A) (A) (A) (A) (A) (A) (A) (A) (A) (A)
                 (A) (A) (A) (A) (A) (A) (A) (A) (A) (A) (A) (A)
                 (A) (A) (A) (A) (A) (A) (A) (A) (A) (A) (A) (A)
                 (A) (A) (A) (A) (A) (A) (A) (A) (A) (A) (A) (A)
                 (A) (A) (A) (A) (A) (A) (A) (A) (A) (A) (A) (A)
                 (A) (A) (A) (A) (A) (A) (A) (A) (A) (A) (A) (A)
                 (A) (A) (A) (A) (A) (A) (A) (A) (A) (A) (A) (A)
                 (A) (A) (A) (A) (A) (A) (A) (A) (A) (A) (A) (A)
                 (A) (A) (A) (A) (A) (A) (A) (A) (A) (A) (A) (A)
                 (A) (A) (A) (A) (A) (A) (A) (A) (A) (A) (A) (A)
                 (A) (A) (A) (A) (A) (A) (A) (A) (A) (A) (A) (A)
                 (A) (A) (A) (A) (A) (A) (A) (A) (A) (A) (A) (A)
                 (A) (A) (A) (A) (A) (A) (A) (A) (A) (A) (A) (A)
                 (A) (A) (A) (A) (A) (A) (A) (A) (A) (A) (A) (A)
                 (A) (A) (A) (A) (A) (A) (A) (A) (A) (A) (A) (A)
                 (A) (A) (A) (A) (A) (A) (A) (A) (A) (A) (A) (A)
                 (A) (A) (A) (A) (A) (A) (A) (A) (A) (A)
 The electronic state is 1-A.
 Alpha  occ. eigenvalues --  -14.53255 -14.48073 -10.39128 -10.34574 -10.34199
 Alpha  occ. eigenvalues --  -10.34103 -10.32774 -10.31803 -10.31245 -10.31105
 Alpha  occ. eigenvalues --  -10.30372 -10.30362 -10.29745 -10.28091 -10.27944
 Alpha  occ. eigenvalues --   -1.10856  -1.05352  -0.92427  -0.91163  -0.88113
 Alpha  occ. eigenvalues --   -0.86961  -0.85667  -0.83381  -0.81920  -0.77140
 Alpha  occ. eigenvalues --   -0.72839  -0.69918  -0.68197  -0.66237  -0.65707
 Alpha  occ. eigenvalues --   -0.63272  -0.61992  -0.60908  -0.60363  -0.58896
 Alpha  occ. eigenvalues --   -0.57006  -0.55501  -0.55032  -0.54500  -0.54309
 Alpha  occ. eigenvalues --   -0.52843  -0.52552  -0.51274  -0.51092  -0.50497
 Alpha  occ. eigenvalues --   -0.49222  -0.48730  -0.47389  -0.46462  -0.46312
 Alpha  occ. eigenvalues --   -0.45408  -0.44579  -0.42141  -0.39136  -0.34191
 Alpha  occ. eigenvalues --   -0.27455
 Alpha virt. eigenvalues --   -0.19330  -0.12959  -0.06596  -0.03717  -0.03073
 Alpha virt. eigenvalues --   -0.01487  -0.01033   0.00208   0.00264   0.00390
 Alpha virt. eigenvalues --    0.01952   0.02029   0.03266   0.03384   0.03769
 Alpha virt. eigenvalues --    0.04586   0.04659   0.05133   0.05987   0.06115
 Alpha virt. eigenvalues --    0.06642   0.07186   0.07565   0.07872   0.08071
 Alpha virt. eigenvalues --    0.09360   0.10221   0.10318   0.11791   0.14029
 Alpha virt. eigenvalues --    0.15308   0.18828   0.19968   0.23165   0.23762
 Alpha virt. eigenvalues --    0.25757   0.26861   0.28891   0.30499   0.32512
 Alpha virt. eigenvalues --    0.35578   0.37224   0.37834   0.38848   0.39128
 Alpha virt. eigenvalues --    0.40142   0.40555   0.42564   0.42870   0.44476
 Alpha virt. eigenvalues --    0.44786   0.45102   0.46359   0.47555   0.48066
 Alpha virt. eigenvalues --    0.48208   0.49581   0.49838   0.50725   0.52205
 Alpha virt. eigenvalues --    0.52879   0.52997   0.54331   0.55517   0.56040
 Alpha virt. eigenvalues --    0.57281   0.58072   0.61018   0.62528   0.63842
 Alpha virt. eigenvalues --    0.64057   0.66041   0.68057   0.69910   0.70033
 Alpha virt. eigenvalues --    0.70885   0.71174   0.72457   0.72951   0.73053
 Alpha virt. eigenvalues --    0.74500   0.75226   0.75589   0.75609   0.76432
 Alpha virt. eigenvalues --    0.77297   0.77306   0.78045   0.78450   0.79566
 Alpha virt. eigenvalues --    0.80185   0.80367   0.81407   0.82494   0.82953
 Alpha virt. eigenvalues --    0.84266   0.85353   0.86490   0.88406   0.90199
 Alpha virt. eigenvalues --    0.90273   0.91482   0.93571   0.94424   0.96570
 Alpha virt. eigenvalues --    0.97792   1.01933   1.06643   1.11042   1.12538
 Alpha virt. eigenvalues --    1.13388   1.16155   1.16572   1.16819   1.18432
 Alpha virt. eigenvalues --    1.19617   1.20714   1.20884   1.21563   1.22355
 Alpha virt. eigenvalues --    1.22963   1.23432   1.25424   1.26077   1.27442
 Alpha virt. eigenvalues --    1.28493   1.32043   1.35081   1.35987   1.36510
 Alpha virt. eigenvalues --    1.40059   1.41020   1.41530   1.45837   1.54022
 Alpha virt. eigenvalues --    1.58935   1.61127   1.61924   1.67074   1.68330
 Alpha virt. eigenvalues --    1.70179   1.71539   1.72930   1.73461   1.73825
 Alpha virt. eigenvalues --    1.75913   1.76126   1.78820   1.78948   1.80151
 Alpha virt. eigenvalues --    1.80429   1.82292   1.83009   1.85067   1.85239
 Alpha virt. eigenvalues --    1.85654   1.88395   1.90515   1.90596   1.90722
 Alpha virt. eigenvalues --    1.92102   1.93591   1.93760   1.95171   1.95440
 Alpha virt. eigenvalues --    1.96211   1.98332   1.98547   1.99352   1.99947
 Alpha virt. eigenvalues --    2.01250   2.02037   2.03349   2.03659   2.04098
 Alpha virt. eigenvalues --    2.05156   2.08312   2.09833   2.10323   2.11617
 Alpha virt. eigenvalues --    2.13244   2.16119   2.19461   2.19927   2.22034
 Alpha virt. eigenvalues --    2.23582   2.25219   2.25849   2.26953   2.30704
 Alpha virt. eigenvalues --    2.31864   2.32537   2.33965   2.36706   2.38344
 Alpha virt. eigenvalues --    2.38951   2.39613   2.40873   2.41298   2.42439
 Alpha virt. eigenvalues --    2.43596   2.44146   2.46965   2.47051   2.47896
 Alpha virt. eigenvalues --    2.48462   2.50935   2.51788   2.53424   2.53477
 Alpha virt. eigenvalues --    2.55565   2.56897   2.57467   2.58438   2.59779
 Alpha virt. eigenvalues --    2.60169   2.60988   2.62845   2.66537   2.66909
 Alpha virt. eigenvalues --    2.70306   2.72659   2.73019   2.74775   2.75354
 Alpha virt. eigenvalues --    2.77626   2.78463   2.79166   2.79508   2.81240
 Alpha virt. eigenvalues --    2.81994   2.82167   2.88130   2.89018   2.95598
 Alpha virt. eigenvalues --    2.98514   3.01023   3.03331   3.11516   3.14914
 Alpha virt. eigenvalues --    3.16346   3.18277   3.24770   3.26731   3.29452
 Alpha virt. eigenvalues --    3.32623   3.33109   3.33504   3.34661   3.35887
 Alpha virt. eigenvalues --    3.36163   3.36831   3.38163   3.39726   3.41191
 Alpha virt. eigenvalues --    3.44956   3.49920   3.53661   3.57252   3.87076
 Alpha virt. eigenvalues --    3.92294   4.00132   4.02962   4.04534   4.08930
 Alpha virt. eigenvalues --    4.15479   4.24461   4.33169   4.33997   4.37410
 Alpha virt. eigenvalues --    4.39108   4.45672   4.52975   4.62860
          Condensed to atoms (all electrons):
               1          2          3          4          5          6
     1  C    4.787236   0.380409   0.518020  -0.048954  -0.006327  -0.007934
     2  H    0.380409   0.622853  -0.050703   0.005439  -0.008088   0.005055
     3  C    0.518020  -0.050703   4.891453   0.385594   0.468433  -0.050672
     4  H   -0.048954   0.005439   0.385594   0.615183  -0.050039   0.005293
     5  C   -0.006327  -0.008088   0.468433  -0.050039   4.806935   0.379255
     6  H   -0.007934   0.005055  -0.050672   0.005293   0.379255   0.621789
     7  C    0.470336  -0.055532  -0.027785  -0.007350   0.003421   0.000393
     8  H   -0.041792   0.005070  -0.006660   0.003595   0.000313   0.000008
     9  C   -0.001955  -0.006522   0.002302   0.000421  -0.000292  -0.000001
    10  H   -0.007840   0.005301   0.000371   0.000009   0.000002   0.000002
    11  N    0.001843   0.000163  -0.000121   0.000000   0.000001  -0.000000
    12  C    0.002938   0.000413  -0.027811  -0.006605   0.507217  -0.051429
    13  H    0.000279   0.000009  -0.007185   0.003634  -0.044501   0.005251
    14  C   -0.000204  -0.000003   0.002723   0.000161  -0.010662  -0.007446
    15  H   -0.000002   0.000001   0.000193   0.000005  -0.003987   0.003372
    16  C    0.000002   0.000000  -0.000174   0.000001   0.001984   0.000456
    17  H   -0.000000  -0.000000   0.000002   0.000001   0.000306   0.000012
    18  N    0.000000   0.000000  -0.000000   0.000000   0.000001   0.000000
    19  C   -0.000000   0.000000   0.000001  -0.000000  -0.000151  -0.000001
    20  H    0.000000  -0.000000  -0.000000  -0.000000   0.000000   0.000001
    21  C   -0.000000   0.000000   0.000000   0.000000   0.000000  -0.000000
    22  H    0.000000   0.000000   0.000000   0.000000  -0.000000  -0.000000
    23  H    0.000000   0.000000   0.000000   0.000000  -0.000000  -0.000000
    24  H    0.000000  -0.000000  -0.000000  -0.000000   0.000000   0.000000
    25  C   -0.000000  -0.000000   0.000000   0.000000  -0.000000  -0.000000
    26  H    0.000000   0.000000   0.000000  -0.000000  -0.000000   0.000000
    27  H    0.000000   0.000000   0.000000  -0.000000  -0.000000   0.000000
    28  H    0.000000   0.000000  -0.000000   0.000000   0.000000  -0.000000
    29  C   -0.000076  -0.000008   0.000001   0.000000  -0.000000   0.000000
    30  H    0.000004   0.000000  -0.000000  -0.000000  -0.000000  -0.000000
    31  H   -0.000013  -0.000004   0.000000   0.000000   0.000000  -0.000000
    32  H    0.000004   0.000000  -0.000000  -0.000000  -0.000000  -0.000000
    33  C    0.000097   0.000008   0.000003  -0.000001  -0.000000  -0.000000
    34  H    0.000038   0.000000  -0.000006  -0.000000  -0.000000  -0.000000
    35  H    0.000038   0.000000  -0.000006  -0.000000  -0.000000  -0.000000
    36  H   -0.000006   0.000000  -0.000000   0.000000   0.000000   0.000000
               7          8          9         10         11         12
     1  C    0.470336  -0.041792  -0.001955  -0.007840   0.001843   0.002938
     2  H   -0.055532   0.005070  -0.006522   0.005301   0.000163   0.000413
     3  C   -0.027785  -0.006660   0.002302   0.000371  -0.000121  -0.027811
     4  H   -0.007350   0.003595   0.000421   0.000009   0.000000  -0.006605
     5  C    0.003421   0.000313  -0.000292   0.000002   0.000001   0.507217
     6  H    0.000393   0.000008  -0.000001   0.000002  -0.000000  -0.051429
     7  C    4.906180   0.382462   0.524883  -0.045901  -0.040214  -0.000223
     8  H    0.382462   0.600090  -0.046641   0.004753  -0.006907   0.000002
     9  C    0.524883  -0.046641   4.705143   0.384671   0.371308   0.000003
    10  H   -0.045901   0.004753   0.384671   0.586425  -0.050639   0.000000
    11  N   -0.040214  -0.006907   0.371308  -0.050639   6.782137  -0.000000
    12  C   -0.000223   0.000002   0.000003   0.000000  -0.000000   4.947090
    13  H    0.000003   0.000001  -0.000000  -0.000000   0.000000   0.384373
    14  C    0.000002  -0.000000  -0.000000   0.000000   0.000000   0.439329
    15  H   -0.000000  -0.000000   0.000000  -0.000000   0.000000  -0.035710
    16  C   -0.000000   0.000000  -0.000000   0.000000  -0.000000  -0.027853
    17  H    0.000000  -0.000000   0.000000   0.000000  -0.000000  -0.007997
    18  N   -0.000000  -0.000000   0.000000   0.000000   0.000000  -0.000065
    19  C    0.000000   0.000000  -0.000000  -0.000000   0.000000   0.002460
    20  H    0.000000   0.000000  -0.000000   0.000000  -0.000000   0.000023
    21  C    0.000000   0.000000  -0.000000   0.000000   0.000000  -0.000004
    22  H   -0.000000  -0.000000  -0.000000  -0.000000   0.000000  -0.000019
    23  H   -0.000000  -0.000000  -0.000000  -0.000000   0.000000  -0.000019
    24  H    0.000000   0.000000  -0.000000   0.000000   0.000000   0.000000
    25  C    0.000000   0.000000  -0.000000  -0.000000   0.000000   0.000001
    26  H   -0.000000  -0.000000   0.000000   0.000000   0.000000  -0.000000
    27  H   -0.000000  -0.000000   0.000000   0.000000   0.000000  -0.000000
    28  H   -0.000000   0.000000   0.000000   0.000000   0.000000   0.000000
    29  C    0.004706   0.000010  -0.037640  -0.009432   0.301582   0.000000
    30  H   -0.000162   0.000001   0.000469   0.000296  -0.043547   0.000000
    31  H    0.000565  -0.000002  -0.004624   0.006492  -0.032375   0.000000
    32  H   -0.000162   0.000001   0.000468   0.000296  -0.043548   0.000000
    33  C   -0.003146   0.004005  -0.040643   0.004528   0.290541   0.000000
    34  H    0.003312   0.000540  -0.003247  -0.000080  -0.040581   0.000000
    35  H    0.003312   0.000541  -0.003247  -0.000080  -0.040581   0.000000
    36  H    0.000040  -0.000007   0.003737  -0.000173  -0.029937  -0.000000
              13         14         15         16         17         18
     1  C    0.000279  -0.000204  -0.000002   0.000002  -0.000000   0.000000
     2  H    0.000009  -0.000003   0.000001   0.000000  -0.000000   0.000000
     3  C   -0.007185   0.002723   0.000193  -0.000174   0.000002  -0.000000
     4  H    0.003634   0.000161   0.000005   0.000001   0.000001   0.000000
     5  C   -0.044501  -0.010662  -0.003987   0.001984   0.000306   0.000001
     6  H    0.005251  -0.007446   0.003372   0.000456   0.000012   0.000000
     7  C    0.000003   0.000002  -0.000000  -0.000000   0.000000  -0.000000
     8  H    0.000001  -0.000000  -0.000000   0.000000  -0.000000  -0.000000
     9  C   -0.000000  -0.000000   0.000000  -0.000000   0.000000   0.000000
    10  H   -0.000000   0.000000  -0.000000   0.000000   0.000000   0.000000
    11  N    0.000000   0.000000   0.000000  -0.000000  -0.000000   0.000000
    12  C    0.384373   0.439329  -0.035710  -0.027853  -0.007997  -0.000065
    13  H    0.600410  -0.044673   0.003426  -0.004055   0.003441   0.000000
    14  C   -0.044673   4.799151   0.384444   0.533698  -0.035959   0.001609
    15  H    0.003426   0.384444   0.588677  -0.055688   0.005233   0.000124
    16  C   -0.004055   0.533698  -0.055688   4.928170   0.385454  -0.041424
    17  H    0.003441  -0.035959   0.005233   0.385454   0.568678  -0.005766
    18  N    0.000000   0.001609   0.000124  -0.041424  -0.005766   6.688157
    19  C    0.000140  -0.021955  -0.006900   0.438953  -0.040777   0.409837
    20  H    0.000002  -0.002164   0.002312  -0.026890   0.002407  -0.049932
    21  C   -0.000004   0.000372   0.000022  -0.004061   0.006104   0.280157
    22  H   -0.000002   0.000195  -0.000002   0.003114  -0.000211  -0.035889
    23  H   -0.000002   0.000198  -0.000002   0.003142  -0.000209  -0.035897
    24  H    0.000000  -0.000019   0.000000   0.000246   0.000187  -0.031435
    25  C   -0.000000  -0.000063  -0.000007   0.003512  -0.000038   0.288098
    26  H    0.000000   0.000003   0.000000  -0.000115   0.000001  -0.037877
    27  H    0.000000   0.000003   0.000000  -0.000111   0.000000  -0.038362
    28  H   -0.000000  -0.000004   0.000001   0.000188  -0.000002  -0.031668
    29  C    0.000000  -0.000000   0.000000   0.000000   0.000000   0.000000
    30  H   -0.000000   0.000000   0.000000  -0.000000  -0.000000   0.000000
    31  H    0.000000   0.000000   0.000000   0.000000   0.000000   0.000000
    32  H   -0.000000   0.000000   0.000000  -0.000000  -0.000000   0.000000
    33  C    0.000000  -0.000000   0.000000   0.000000   0.000000   0.000000
    34  H    0.000000   0.000000   0.000000  -0.000000  -0.000000   0.000000
    35  H    0.000000   0.000000   0.000000  -0.000000  -0.000000   0.000000
    36  H    0.000000   0.000000  -0.000000   0.000000  -0.000000   0.000000
              19         20         21         22         23         24
     1  C   -0.000000   0.000000  -0.000000   0.000000   0.000000   0.000000
     2  H    0.000000  -0.000000   0.000000   0.000000   0.000000  -0.000000
     3  C    0.000001  -0.000000   0.000000   0.000000   0.000000  -0.000000
     4  H   -0.000000  -0.000000   0.000000   0.000000   0.000000  -0.000000
     5  C   -0.000151   0.000000   0.000000  -0.000000  -0.000000   0.000000
     6  H   -0.000001   0.000001  -0.000000  -0.000000  -0.000000   0.000000
     7  C    0.000000   0.000000   0.000000  -0.000000  -0.000000   0.000000
     8  H    0.000000   0.000000   0.000000  -0.000000  -0.000000   0.000000
     9  C   -0.000000  -0.000000  -0.000000  -0.000000  -0.000000  -0.000000
    10  H   -0.000000   0.000000   0.000000  -0.000000  -0.000000   0.000000
    11  N    0.000000  -0.000000   0.000000   0.000000   0.000000   0.000000
    12  C    0.002460   0.000023  -0.000004  -0.000019  -0.000019   0.000000
    13  H    0.000140   0.000002  -0.000004  -0.000002  -0.000002   0.000000
    14  C   -0.021955  -0.002164   0.000372   0.000195   0.000198  -0.000019
    15  H   -0.006900   0.002312   0.000022  -0.000002  -0.000002   0.000000
    16  C    0.438953  -0.026890  -0.004061   0.003114   0.003142   0.000246
    17  H   -0.040777   0.002407   0.006104  -0.000211  -0.000209   0.000187
    18  N    0.409837  -0.049932   0.280157  -0.035889  -0.035897  -0.031435
    19  C    4.781321   0.383324  -0.051027  -0.004552  -0.004625   0.004529
    20  H    0.383324   0.537717   0.005070  -0.000120  -0.000122  -0.000203
    21  C   -0.051027   0.005070   4.827244   0.390830   0.390799   0.393787
    22  H   -0.004552  -0.000120   0.390830   0.537956  -0.036222  -0.025555
    23  H   -0.004625  -0.000122   0.390799  -0.036222   0.538090  -0.025511
    24  H    0.004529  -0.000203   0.393787  -0.025555  -0.025511   0.528775
    25  C   -0.038793  -0.007441  -0.040684   0.002051   0.002104  -0.002289
    26  H    0.000640   0.000135  -0.001895   0.001055  -0.000323   0.000866
    27  H    0.000438   0.000148  -0.001640  -0.000322   0.001024   0.000801
    28  H   -0.004247   0.007047   0.004105  -0.000206  -0.000207   0.000265
    29  C   -0.000000   0.000000   0.000000   0.000000   0.000000   0.000000
    30  H    0.000000   0.000000   0.000000   0.000000   0.000000   0.000000
    31  H   -0.000000  -0.000000   0.000000   0.000000   0.000000   0.000000
    32  H    0.000000   0.000000   0.000000   0.000000   0.000000   0.000000
    33  C    0.000000   0.000000   0.000000   0.000000   0.000000   0.000000
    34  H   -0.000000   0.000000   0.000000   0.000000  -0.000000   0.000000
    35  H   -0.000000   0.000000   0.000000  -0.000000   0.000000   0.000000
    36  H    0.000000   0.000000   0.000000   0.000000   0.000000   0.000000
              25         26         27         28         29         30
     1  C   -0.000000   0.000000   0.000000   0.000000  -0.000076   0.000004
     2  H   -0.000000   0.000000   0.000000   0.000000  -0.000008   0.000000
     3  C    0.000000   0.000000   0.000000  -0.000000   0.000001  -0.000000
     4  H    0.000000  -0.000000  -0.000000   0.000000   0.000000  -0.000000
     5  C   -0.000000  -0.000000  -0.000000   0.000000  -0.000000  -0.000000
     6  H   -0.000000   0.000000   0.000000  -0.000000   0.000000  -0.000000
     7  C    0.000000  -0.000000  -0.000000  -0.000000   0.004706  -0.000162
     8  H    0.000000  -0.000000  -0.000000   0.000000   0.000010   0.000001
     9  C   -0.000000   0.000000   0.000000   0.000000  -0.037640   0.000469
    10  H   -0.000000   0.000000   0.000000   0.000000  -0.009432   0.000296
    11  N    0.000000   0.000000   0.000000   0.000000   0.301582  -0.043547
    12  C    0.000001  -0.000000  -0.000000   0.000000   0.000000   0.000000
    13  H   -0.000000   0.000000   0.000000  -0.000000   0.000000  -0.000000
    14  C   -0.000063   0.000003   0.000003  -0.000004  -0.000000   0.000000
    15  H   -0.000007   0.000000   0.000000   0.000001   0.000000   0.000000
    16  C    0.003512  -0.000115  -0.000111   0.000188   0.000000  -0.000000
    17  H   -0.000038   0.000001   0.000000  -0.000002   0.000000  -0.000000
    18  N    0.288098  -0.037877  -0.038362  -0.031668   0.000000   0.000000
    19  C   -0.038793   0.000640   0.000438  -0.004247  -0.000000   0.000000
    20  H   -0.007441   0.000135   0.000148   0.007047   0.000000   0.000000
    21  C   -0.040684  -0.001895  -0.001640   0.004105   0.000000   0.000000
    22  H    0.002051   0.001055  -0.000322  -0.000206   0.000000   0.000000
    23  H    0.002104  -0.000323   0.001024  -0.000207   0.000000   0.000000
    24  H   -0.002289   0.000866   0.000801   0.000265   0.000000   0.000000
    25  C    4.813135   0.392922   0.392913   0.392324   0.000000   0.000000
    26  H    0.392922   0.536422  -0.035270  -0.025224   0.000000   0.000000
    27  H    0.392913  -0.035270   0.536794  -0.025580   0.000000   0.000000
    28  H    0.392324  -0.025224  -0.025580   0.532943   0.000000   0.000000
    29  C    0.000000   0.000000   0.000000   0.000000   4.786381   0.392716
    30  H    0.000000   0.000000   0.000000   0.000000   0.392716   0.568011
    31  H    0.000000   0.000000   0.000000   0.000000   0.393277  -0.026875
    32  H    0.000000   0.000000   0.000000   0.000000   0.392714  -0.040555
    33  C    0.000000   0.000000   0.000000   0.000000  -0.041999  -0.001189
    34  H    0.000000   0.000000   0.000000   0.000000   0.002282  -0.000444
    35  H    0.000000   0.000000   0.000000   0.000000   0.002282   0.001260
    36  H    0.000000   0.000000   0.000000   0.000000  -0.003033   0.001099
              31         32         33         34         35         36
     1  C   -0.000013   0.000004   0.000097   0.000038   0.000038  -0.000006
     2  H   -0.000004   0.000000   0.000008   0.000000   0.000000   0.000000
     3  C    0.000000  -0.000000   0.000003  -0.000006  -0.000006  -0.000000
     4  H    0.000000  -0.000000  -0.000001  -0.000000  -0.000000   0.000000
     5  C    0.000000  -0.000000  -0.000000  -0.000000  -0.000000   0.000000
     6  H   -0.000000  -0.000000  -0.000000  -0.000000  -0.000000   0.000000
     7  C    0.000565  -0.000162  -0.003146   0.003312   0.003312   0.000040
     8  H   -0.000002   0.000001   0.004005   0.000540   0.000541  -0.000007
     9  C   -0.004624   0.000468  -0.040643  -0.003247  -0.003247   0.003737
    10  H    0.006492   0.000296   0.004528  -0.000080  -0.000080  -0.000173
    11  N   -0.032375  -0.043548   0.290541  -0.040581  -0.040581  -0.029937
    12  C    0.000000   0.000000   0.000000   0.000000   0.000000  -0.000000
    13  H    0.000000  -0.000000   0.000000   0.000000   0.000000   0.000000
    14  C    0.000000   0.000000  -0.000000   0.000000   0.000000   0.000000
    15  H    0.000000   0.000000   0.000000   0.000000   0.000000  -0.000000
    16  C    0.000000  -0.000000   0.000000  -0.000000  -0.000000   0.000000
    17  H    0.000000  -0.000000   0.000000  -0.000000  -0.000000  -0.000000
    18  N    0.000000   0.000000   0.000000   0.000000   0.000000   0.000000
    19  C   -0.000000   0.000000   0.000000  -0.000000  -0.000000   0.000000
    20  H   -0.000000   0.000000   0.000000   0.000000   0.000000   0.000000
    21  C    0.000000   0.000000   0.000000   0.000000   0.000000   0.000000
[...]
     8  H    0.382788   0.593773  -0.047236   0.004709  -0.008183   0.000002
     9  C    0.507116  -0.047236   4.702734   0.382530   0.389157   0.000002
    10  H   -0.044694   0.004709   0.382530   0.570471  -0.048146   0.000000
    11  N   -0.040308  -0.008183   0.389157  -0.048146   6.732067  -0.000000
    12  C   -0.000224   0.000002   0.000002   0.000000  -0.000000   4.893310
    13  H    0.000001   0.000001  -0.000000  -0.000000   0.000000   0.387063
    14  C    0.000002  -0.000000  -0.000000   0.000000   0.000000   0.498161
    15  H   -0.000000  -0.000000   0.000000  -0.000000   0.000000  -0.048554
    16  C   -0.000000   0.000000  -0.000000   0.000000  -0.000000  -0.027217
    17  H    0.000000  -0.000000   0.000000   0.000000  -0.000000  -0.006599
    18  N   -0.000000  -0.000000   0.000000   0.000000   0.000000  -0.000119
    19  C   -0.000000   0.000000   0.000000  -0.000000   0.000000   0.002425
    20  H    0.000000   0.000000  -0.000000   0.000000   0.000000   0.000295
    21  C    0.000000   0.000000   0.000000   0.000000   0.000000   0.000001
    22  H   -0.000000  -0.000000  -0.000000  -0.000000   0.000000  -0.000011
    23  H   -0.000000  -0.000000  -0.000000  -0.000000   0.000000  -0.000011
    24  H    0.000000   0.000000   0.000000   0.000000   0.000000  -0.000000
    25  C    0.000000   0.000000  -0.000000  -0.000000   0.000000   0.000001
    26  H   -0.000000  -0.000000   0.000000   0.000000   0.000000  -0.000000
    27  H   -0.000000  -0.000000   0.000000  -0.000000   0.000000  -0.000000
    28  H    0.000000   0.000000   0.000000   0.000000   0.000000   0.000000
    29  C    0.004388  -0.000014  -0.037624  -0.007294   0.297531   0.000000
    30  H   -0.000140   0.000001   0.000498   0.000191  -0.040354   0.000000
    31  H    0.000348  -0.000000  -0.002736   0.006032  -0.032368  -0.000000
    32  H   -0.000140   0.000001   0.000499   0.000191  -0.040354   0.000000
    33  C   -0.003779   0.005790  -0.047844   0.004672   0.287799   0.000000
    34  H    0.003520   0.000294  -0.004508  -0.000092  -0.037658   0.000000
    35  H    0.003520   0.000294  -0.004508  -0.000092  -0.037659   0.000000
    36  H    0.000135   0.000043   0.004361  -0.000168  -0.031838  -0.000000
              13         14         15         16         17         18
     1  C    0.000344  -0.000286   0.000000   0.000002  -0.000000   0.000000
     2  H    0.000009   0.000000   0.000001  -0.000000  -0.000000   0.000000
     3  C   -0.006625   0.002995   0.000401  -0.000224   0.000002  -0.000000
     4  H    0.003701   0.000344   0.000009   0.000001   0.000001   0.000000
     5  C   -0.049094  -0.005287  -0.007720   0.003271   0.000305   0.000001
     6  H    0.005292  -0.007409   0.005007   0.000393   0.000009  -0.000000
     7  C    0.000001   0.000002  -0.000000  -0.000000   0.000000  -0.000000
     8  H    0.000001  -0.000000  -0.000000   0.000000  -0.000000  -0.000000
     9  C   -0.000000  -0.000000   0.000000  -0.000000   0.000000   0.000000
    10  H   -0.000000   0.000000  -0.000000   0.000000   0.000000   0.000000
    11  N    0.000000   0.000000   0.000000  -0.000000  -0.000000   0.000000
    12  C    0.387063   0.498161  -0.048554  -0.027217  -0.006599  -0.000119
    13  H    0.609001  -0.050724   0.005385  -0.007042   0.003664   0.000001
    14  C   -0.050724   4.785029   0.379997   0.487935  -0.040377   0.001860
    15  H    0.005385   0.379997   0.615405  -0.055865   0.005076   0.000169
    16  C   -0.007042   0.487935  -0.055865   4.913105   0.382785  -0.040305
    17  H    0.003664  -0.040377   0.005076   0.382785   0.593779  -0.008186
    18  N    0.000001   0.001860   0.000169  -0.040305  -0.008186   6.732056
    19  C    0.000358  -0.004465  -0.006550   0.507125  -0.047237   0.389156
    20  H    0.000009  -0.006628   0.005207  -0.044690   0.004709  -0.048146
    21  C   -0.000003   0.000225   0.000014  -0.003779   0.005792   0.287800
    22  H   -0.000001   0.000108  -0.000001   0.003523   0.000294  -0.037640
    23  H   -0.000001   0.000106  -0.000001   0.003515   0.000294  -0.037677
    24  H    0.000000  -0.000012   0.000000   0.000135   0.000043  -0.031838
    25  C    0.000000  -0.000061  -0.000006   0.004388  -0.000014   0.297540
    26  H   -0.000000   0.000003   0.000000  -0.000140   0.000001  -0.040347
    27  H   -0.000000   0.000003   0.000000  -0.000140   0.000001  -0.040367
    28  H    0.000000  -0.000009  -0.000001   0.000348  -0.000000  -0.032367
    29  C    0.000000  -0.000000   0.000000   0.000000   0.000000   0.000000
    30  H   -0.000000   0.000000   0.000000  -0.000000  -0.000000   0.000000
    31  H    0.000000   0.000000   0.000000   0.000000   0.000000   0.000000
    32  H   -0.000000   0.000000   0.000000  -0.000000  -0.000000   0.000000
    33  C    0.000000  -0.000000   0.000000   0.000000   0.000000   0.000000
    34  H    0.000000   0.000000   0.000000  -0.000000  -0.000000   0.000000
    35  H    0.000000   0.000000   0.000000  -0.000000  -0.000000   0.000000
    36  H   -0.000000   0.000000  -0.000000   0.000000   0.000000   0.000000
              19         20         21         22         23         24
     1  C   -0.000000   0.000000  -0.000000   0.000000   0.000000   0.000000
     2  H    0.000000  -0.000000   0.000000   0.000000   0.000000  -0.000000
     3  C    0.000002   0.000000   0.000000   0.000000   0.000000  -0.000000
     4  H   -0.000000  -0.000000   0.000000   0.000000   0.000000  -0.000000
     5  C   -0.000272   0.000004   0.000000  -0.000000  -0.000000   0.000000
     6  H    0.000001   0.000002  -0.000000  -0.000000  -0.000000   0.000000
     7  C   -0.000000   0.000000   0.000000  -0.000000  -0.000000   0.000000
     8  H    0.000000   0.000000   0.000000  -0.000000  -0.000000   0.000000
     9  C    0.000000  -0.000000   0.000000  -0.000000  -0.000000   0.000000
    10  H   -0.000000   0.000000   0.000000  -0.000000  -0.000000   0.000000
    11  N    0.000000   0.000000   0.000000   0.000000   0.000000   0.000000
    12  C    0.002425   0.000295   0.000001  -0.000011  -0.000011  -0.000000
    13  H    0.000358   0.000009  -0.000003  -0.000001  -0.000001   0.000000
    14  C   -0.004465  -0.006628   0.000225   0.000108   0.000106  -0.000012
    15  H   -0.006550   0.005207   0.000014  -0.000001  -0.000001   0.000000
    16  C    0.507125  -0.044690  -0.003779   0.003523   0.003515   0.000135
    17  H   -0.047237   0.004709   0.005792   0.000294   0.000294   0.000043
    18  N    0.389156  -0.048146   0.287800  -0.037640  -0.037677  -0.031838
    19  C    4.702732   0.382528  -0.047839  -0.004515  -0.004499   0.004361
    20  H    0.382528   0.570468   0.004672  -0.000091  -0.000092  -0.000168
    21  C   -0.047839   0.004672   4.826991   0.386494   0.386508   0.391755
    22  H   -0.004515  -0.000091   0.386494   0.557030  -0.037841  -0.025780
    23  H   -0.004499  -0.000092   0.386508  -0.037841   0.557078  -0.025818
    24  H    0.004361  -0.000168   0.391755  -0.025780  -0.025818   0.537798
    25  C   -0.037625  -0.007293  -0.042185   0.002129   0.002117  -0.002678
    26  H    0.000503   0.000191  -0.001677   0.001170  -0.000373   0.000988
    27  H    0.000494   0.000190  -0.001658  -0.000371   0.001179   0.000959
    28  H   -0.002737   0.006032   0.004067  -0.000198  -0.000198   0.000242
    29  C   -0.000000  -0.000000   0.000000   0.000000   0.000000   0.000000
    30  H    0.000000  -0.000000   0.000000   0.000000   0.000000   0.000000
    31  H    0.000000   0.000000   0.000000   0.000000   0.000000   0.000000
    32  H    0.000000   0.000000   0.000000   0.000000   0.000000   0.000000
    33  C    0.000000   0.000000   0.000000   0.000000   0.000000   0.000000
    34  H   -0.000000  -0.000000   0.000000   0.000000  -0.000000   0.000000
    35  H   -0.000000  -0.000000   0.000000  -0.000000   0.000000   0.000000
    36  H    0.000000   0.000000   0.000000   0.000000   0.000000   0.000000
              25         26         27         28         29         30
     1  C   -0.000000   0.000000   0.000000   0.000000  -0.000061   0.000003
     2  H    0.000000   0.000000   0.000000   0.000000  -0.000006   0.000000
     3  C    0.000000   0.000000   0.000000  -0.000000   0.000001  -0.000000
     4  H    0.000000  -0.000000  -0.000000   0.000000   0.000000  -0.000000
     5  C   -0.000000  -0.000000  -0.000000   0.000000  -0.000000  -0.000000
     6  H    0.000000   0.000000   0.000000   0.000000   0.000000   0.000000
     7  C    0.000000  -0.000000  -0.000000   0.000000   0.004388  -0.000140
     8  H    0.000000  -0.000000  -0.000000   0.000000  -0.000014   0.000001
     9  C   -0.000000   0.000000   0.000000   0.000000  -0.037624   0.000498
    10  H   -0.000000   0.000000  -0.000000   0.000000  -0.007294   0.000191
    11  N    0.000000   0.000000   0.000000   0.000000   0.297531  -0.040354
    12  C    0.000001  -0.000000  -0.000000   0.000000   0.000000   0.000000
    13  H    0.000000  -0.000000  -0.000000   0.000000   0.000000  -0.000000
    14  C   -0.000061   0.000003   0.000003  -0.000009  -0.000000   0.000000
    15  H   -0.000006   0.000000   0.000000  -0.000001   0.000000   0.000000
    16  C    0.004388  -0.000140  -0.000140   0.000348   0.000000  -0.000000
    17  H   -0.000014   0.000001   0.000001  -0.000000   0.000000  -0.000000
    18  N    0.297540  -0.040347  -0.040367  -0.032367   0.000000   0.000000
    19  C   -0.037625   0.000503   0.000494  -0.002737  -0.000000   0.000000
    20  H   -0.007293   0.000191   0.000190   0.006032  -0.000000  -0.000000
    21  C   -0.042185  -0.001677  -0.001658   0.004067   0.000000   0.000000
    22  H    0.002129   0.001170  -0.000371  -0.000198   0.000000   0.000000
    23  H    0.002117  -0.000373   0.001179  -0.000198   0.000000   0.000000
    24  H   -0.002678   0.000988   0.000959   0.000242   0.000000   0.000000
    25  C    4.810885   0.388818   0.388819   0.388801   0.000000   0.000000
    26  H    0.388818   0.558524  -0.038114  -0.025752   0.000000   0.000000
    27  H    0.388819  -0.038114   0.558559  -0.025770   0.000000   0.000000
    28  H    0.388801  -0.025752  -0.025770   0.543273   0.000000   0.000000
    29  C    0.000000   0.000000   0.000000   0.000000   4.810886   0.388819
    30  H    0.000000   0.000000   0.000000   0.000000   0.388819   0.558528
    31  H    0.000000   0.000000   0.000000   0.000000   0.388803  -0.025759
    32  H    0.000000   0.000000   0.000000   0.000000   0.388819  -0.038112
    33  C    0.000000   0.000000   0.000000   0.000000  -0.042181  -0.001667
    34  H    0.000000   0.000000   0.000000   0.000000   0.002123  -0.000372
    35  H    0.000000   0.000000   0.000000   0.000000   0.002123   0.001174
    36  H    0.000000   0.000000   0.000000   0.000000  -0.002678   0.000973
              31         32         33         34         35         36
     1  C   -0.000009   0.000003   0.000225   0.000107   0.000107  -0.000012
     2  H   -0.000001   0.000000   0.000014  -0.000001  -0.000001   0.000000
     3  C    0.000000  -0.000000   0.000001  -0.000011  -0.000011  -0.000000
     4  H    0.000000  -0.000000  -0.000003  -0.000001  -0.000001   0.000000
     5  C    0.000000  -0.000000   0.000000  -0.000000  -0.000000   0.000000
     6  H    0.000000   0.000000  -0.000000  -0.000000  -0.000000   0.000000
     7  C    0.000348  -0.000140  -0.003779   0.003520   0.003520   0.000135
     8  H   -0.000000   0.000001   0.005790   0.000294   0.000294   0.000043
     9  C   -0.002736   0.000499  -0.047844  -0.004508  -0.004508   0.004361
    10  H    0.006032   0.000191   0.004672  -0.000092  -0.000092  -0.000168
    11  N   -0.032368  -0.040354   0.287799  -0.037658  -0.037659  -0.031838
    12  C   -0.000000   0.000000   0.000000   0.000000   0.000000  -0.000000
    13  H    0.000000  -0.000000   0.000000   0.000000   0.000000  -0.000000
    14  C    0.000000   0.000000  -0.000000   0.000000   0.000000   0.000000
    15  H    0.000000   0.000000   0.000000   0.000000   0.000000  -0.000000
    16  C    0.000000  -0.000000   0.000000  -0.000000  -0.000000   0.000000
    17  H    0.000000  -0.000000   0.000000  -0.000000  -0.000000   0.000000
    18  N    0.000000   0.000000   0.000000   0.000000   0.000000   0.000000
    19  C    0.000000   0.000000   0.000000  -0.000000  -0.000000   0.000000
    20  H    0.000000   0.000000   0.000000  -0.000000  -0.000000   0.000000
    21  C    0.000000   0.000000   0.000000   0.000000   0.000000   0.000000
    22  H    0.000000   0.000000   0.000000   0.000000  -0.000000   0.000000
    23  H    0.000000   0.000000   0.000000  -0.000000   0.000000   0.000000
    24  H    0.000000   0.000000   0.000000   0.000000   0.000000   0.000000
    25  C    0.000000   0.000000   0.000000   0.000000   0.000000   0.000000
    26  H    0.000000   0.000000   0.000000   0.000000   0.000000   0.000000
    27  H    0.000000   0.000000   0.000000   0.000000   0.000000   0.000000
    28  H    0.000000   0.000000   0.000000   0.000000   0.000000   0.000000
    29  C    0.388803   0.388819  -0.042181   0.002123   0.002123  -0.002678
    30  H   -0.025759  -0.038112  -0.001667  -0.000372   0.001174   0.000973
    31  H    0.543264  -0.025759   0.004066  -0.000198  -0.000198   0.000242
    32  H   -0.025759   0.558528  -0.001667   0.001174  -0.000372   0.000974
    33  C    0.004066  -0.001667   4.826992   0.386502   0.386503   0.391754
    34  H   -0.000198   0.001174   0.386502   0.557047  -0.037840  -0.025798
    35  H   -0.000198  -0.000372   0.386503  -0.037840   0.557048  -0.025799
    36  H    0.000242   0.000974   0.391754  -0.025798  -0.025799   0.537797
 Mulliken charges:
               1
     1  C   -0.041512
     2  H    0.102022
     3  C   -0.098888
     4  H    0.098659
     5  C   -0.048134
     6  H    0.101315
     7  C   -0.127109
     8  H    0.105661
     9  C    0.166056
    10  H    0.132800
    11  N   -0.391597
    12  C   -0.098885
    13  H    0.098660
    14  C   -0.041512
    15  H    0.102025
    16  C   -0.127127
    17  H    0.105659
    18  N   -0.391590
    19  C    0.166054
    20  H    0.132802
    21  C   -0.197176
    22  H    0.155702
    23  H    0.155712
    24  H    0.150015
    25  C   -0.193635
    26  H    0.156205
    27  H    0.156216
    28  H    0.144268
    29  C   -0.193632
    30  H    0.156217
    31  H    0.144273
    32  H    0.156217
    33  C   -0.197177
    34  H    0.155710
    35  H    0.155711
    36  H    0.150014
 Sum of Mulliken charges =   1.00000
 Mulliken charges with hydrogens summed into heavy atoms:
               1
     1  C    0.060509
     3  C   -0.000228
     5  C    0.053181
     7  C   -0.021448
     9  C    0.298856
    11  N   -0.391597
    12  C   -0.000225
    14  C    0.060513
    16  C   -0.021468
    18  N   -0.391590
    19  C    0.298856
    21  C    0.264253
    25  C    0.263055
    29  C    0.263075
    33  C    0.264258
 Electronic spatial extent (au):  <R**2>=          10688.9984
 Charge=              1.0000 electrons
 Dipole moment (field-independent basis, Debye):
    X=             -0.0010    Y=             -0.8564    Z=              0.0008  Tot=              0.8564
 Quadrupole moment (field-independent basis, Debye-Ang):
   XX=             95.4879   YY=            -74.8734   ZZ=            -94.4179
   XY=              0.0008   XZ=              0.0047   YZ=              0.0009
 Traceless Quadrupole moment (field-independent basis, Debye-Ang):
   XX=            120.0890   YY=            -50.2723   ZZ=            -69.8167
   XY=              0.0008   XZ=              0.0047   YZ=              0.0009
 Octapole moment (field-independent basis, Debye-Ang**2):
  XXX=             -0.0428  YYY=             -2.7029  ZZZ=              0.0078  XYY=             -0.0015
  XXY=            -22.3853  XXZ=              0.0468  XZZ=             -0.0016  YZZ=              1.2785
  YYZ=             -0.0007  XYZ=             -0.0131
 Hexadecapole moment (field-independent basis, Debye-Ang**3):
 XXXX=          -4472.0857 YYYY=           -457.0011 ZZZZ=           -119.9942 XXXY=              0.0454
 XXXZ=              0.1700 YYYX=              0.0006 YYYZ=              0.0027 ZZZX=              0.0387
 ZZZY=              0.0023 XXYY=          -1917.8942 XXZZ=          -2280.2368 YYZZ=           -102.5360
 XXYZ=             -0.0258 YYXZ=             -0.0017 ZZXY=              0.0019
 N-N= 8.397217925097D+02 E-N=-3.094077318186D+03  KE= 6.111555797034D+02
 No NMR shielding tensors so no spin-rotation constants.
 Leave Link  601 at Tue Jun  8 20:44:33 2021, MaxMem=    33554432 cpu:         0.3
 (Enter /opt/app/gaussian09/e01/g09/l9999.exe)
 1\1\GINC-NB-0567\FOpt\RB3LYP\6-31G(d,p)\C13H21N2(1+)\ROOT\08-Jun-2021\
 0\\#p opt b3lyp/6-31g(d,p) geom=connectivity scf=tight\\opt\\1,1\C,-0.
 6001429388,-0.4274179778,-0.00062063\H,-0.5481318076,-1.5171731196,-0.
 0015280863\C,0.6056775309,0.2660789374,-0.0000963075\H,0.5850050088,1.
 3541990672,0.0008059363\C,1.8431577223,-0.3800315472,-0.0006833184\H,1
 .8383309864,-1.4709890895,-0.0015840038\C,-1.8738627591,0.1549951703,-
 0.0000850727\H,-1.955405629,1.2370866867,0.0008207197\C,-3.0158678165,
 -0.6351984241,-0.000703982\H,-2.899516933,-1.7164170127,-0.0016209857\
 N,-4.2807383878,-0.2095023668,-0.0002909882\C,3.086287984,0.2551385708
 ,-0.0002037319\H,3.1165625204,1.3430398365,0.000680216\C,4.2859571162,
 -0.4489600498,-0.000841747\H,4.2243271912,-1.5382160648,-0.0017892794\
 C,5.5647785905,0.1222153648,-0.0004268071\H,5.65585564,1.2035592159,0.
 0005590793\N,7.9683832137,-0.263222667,-0.0007039525\C,6.6998246119,-0
 .6779158063,-0.0010997055\H,6.5741280418,-1.7580969749,-0.0017375603\C
 ,8.2958365236,1.163209619,0.0004040483\H,7.8887646994,1.6534550214,-0.
 889837216\H,7.8908433774,1.6517211496,0.8925691415\H,9.378991767,1.279
 6578245,-0.0007815092\C,9.0824485972,-1.2100653303,-0.0004476818\H,9.7
 045313328,-1.0653569376,-0.8895970008\H,9.7030163197,-1.0667686951,0.8
 90001612\H,8.6999468858,-2.2313225608,-0.0015796783\C,-5.4030235076,-1
 .1466308345,-0.0010619732\H,-6.0230871704,-0.9964496236,-0.8907149503\
 H,-5.0293852049,-2.1711556251,-0.001949411\H,-6.0230398166,-0.99797292
 03,0.8888796593\C,-4.5957187911,1.2197374509,0.0009325013\H,-4.1853551
 449,1.7047875206,0.8925156511\H,-4.1854832281,1.7062879734,-0.88989213
 52\H,-5.6778175857,1.3456385087,0.0011169091\\Version=ES64L-G09RevE.01
 \State=1-A\HF=-617.3239164\RMSD=5.387e-09\RMSF=7.820e-06\Dipole=-0.001
 8658,-0.3369342,0.0000994\Quadrupole=89.28082,-37.3737826,-51.9070374,
 -0.5550968,0.0020713,0.0107548\PG=C01 [X(C13H21N2)]\\@


 NOBODY LOSES ALL THE TIME
 I HAD AN UNCLE NAMED
 SOL WHO WAS A BORN FAILURE AND
 NEARLY EVERYBODY SAID HE SHOULD HAVE GONE
 INTO VAUDEVILLE PERHAPS BECAUSE MY UNCLE SOL COULD
 SING MCCANN HE WAS A DIVER ON XMAS EVE LIKE HELL ITSELF WHICH
 MAY OR MAY NOT ACCOUNT FOR THE FACT THAT MY UNCLE
 SOL INDULGED IN THAT POSSIBLY MOST INEXCUSABLE
 OF ALL TO USE A HIGHFALOOTIN PHRASE
 LUXURIES THAT IS OR TO
 WIT FARMING AND BE
 IT NEEDLESSLY
 ADDED
 MY UNCLE SOL'S FARM     
 FAILED BECAUSE THE CHICKENS
 ATE THE VEGETABLES SO
 MY UNCLE SOL HAD A
 CHICKEN FARM TILL THE
 SKUNKS ATE THE CHICKENS WHEN 
 MY UNCLE SOL
 HAD A SKUNK FARM BUT
 THE SKUNKS CAUGHT COLD AND
 DIED AND SO
 MY UNCLE SOL IMITATED THE
 SKUNKS IN A SUBTLE MANNER
 OR BY DROWNING HIMSELF IN THE WATERTANK
 BUT SOMEBODY WHO'D GIVEN MY UNCLE SOL A VICTOR     
 VICTROLA AND RECORDS WHILE HE LIVED PRESENTED TO
 HIM UPON THE AUSPICIOUS OCCASION OF HIS DECEASE A
 SCRUMPTIOUS NOT TO MENTION SPLENDIFEROUS FUNERAL WITH
 TALL BOYS IN BLACK GLOVES AND FLOWERS AND EVERYTHING AND
 I REMEMBER WE ALL CRIED LIKE THE MISSOURI
 WHEN MY UNCLE SOL'S COFFIN LURCHED BECAUSE     
 SOMEBODY PRESSED A BUTTON
 (AND DOWN WENT
 MY UNCLE
 SOL
 AND STARTED A WORM FARM)
           E. E. CUMMINGS
 Job cpu time:       0 days  0 hours 45 minutes 21.1 seconds.
 File lengths (MBytes):  RWF=     69 Int=      0 D2E=      0 Chk=      9 Scr=      1
 Normal termination of Gaussian 09 at Tue Jun  8 20:44:34 2021.
