opt                                                                     
FOpt      RB3LYP                                                      6-31G(d,p)          
Number of atoms                            I               28
Info1-9                                    I   N=           9
          64          64           0           0           0         110
           2          18        -502
Charge                                     I                1
Multiplicity                               I                1
Number of electrons                        I               84
Number of alpha electrons                  I               42
Number of beta electrons                   I               42
Number of basis functions                  I              250
Number of independent functions            I              250
Number of point charges in /Mol/           I                0
Number of translation vectors              I                0
Atomic numbers                             I   N=          28
           6           1           6           1           6           1
           6           1           7           6           1           7
           6           1           1           1           6           1
           1           1           6           1           1           1
           6           1           1           1
Nuclear charges                            R   N=          28
  6.00000000E+00  1.00000000E+00  6.00000000E+00  1.00000000E+00  6.00000000E+00
  1.00000000E+00  6.00000000E+00  1.00000000E+00  7.00000000E+00  6.00000000E+00
  1.00000000E+00  7.00000000E+00  6.00000000E+00  1.00000000E+00  1.00000000E+00
  1.00000000E+00  6.00000000E+00  1.00000000E+00  1.00000000E+00  1.00000000E+00
  6.00000000E+00  1.00000000E+00  1.00000000E+00  1.00000000E+00  6.00000000E+00
  1.00000000E+00  1.00000000E+00  1.00000000E+00
Current cartesian coordinates              R   N=          84
  4.56496703E+00 -9.86255495E-01  5.51778162E-04  4.41683493E+00 -3.03625775E+00
  1.29284484E-03  2.34614900E+00  4.32250105E-01 -2.27497770E-04  2.42293280E+00
  2.48076485E+00 -1.66389440E-03  7.33841967E-06 -7.69050281E-01  6.24282786E-04
  1.21396999E-05 -2.83094700E+00  1.98247933E-03 -2.34615574E+00  4.32250221E-01
 -9.70077745E-05 -2.42289947E+00  2.48076824E+00 -1.43958418E-03 -6.91295318E+00
 -9.84262515E-02  7.87295255E-04 -4.56497912E+00 -9.86274605E-01  6.06871052E-04
 -4.41688248E+00 -3.03628037E+00  1.18731075E-03  6.91296036E+00 -9.84156511E-02
  6.34439603E-04  9.10227510E+00 -1.79192411E+00 -6.49380720E-04  1.02590665E+01
 -1.45779048E+00  1.68034541E+00  8.47124564E+00 -3.75330477E+00  2.49952381E-04
  1.02565880E+01 -1.45858671E+00 -1.68353038E+00  7.41738832E+00  2.62601267E+00
 -3.07280251E-04  6.61738729E+00  3.51157711E+00 -1.68906790E+00  6.60728716E+00
  3.51424139E+00  1.68212440E+00  9.45287718E+00  2.93042221E+00  5.69401994E-03
 -7.41737731E+00  2.62599648E+00  2.44835131E-04 -6.60618027E+00  3.51418018E+00
  1.68216328E+00 -6.61852871E+00  3.51163702E+00 -1.68902764E+00 -9.45286656E+00
  2.93040298E+00  7.62959073E-03 -9.10226855E+00 -1.79189244E+00 -1.19614161E-03
 -8.47129504E+00 -3.75329666E+00 -1.31092084E-03 -1.02590219E+01 -1.45857310E+00
  1.67999380E+00 -1.02566439E+01 -1.45773913E+00 -1.68387768E+00
Force Field                                I                0
Int Atom Types                             I   N=          28
           0           0           0           0           0           0
           0           0           0           0           0           0
           0           0           0           0           0           0
           0           0           0           0           0           0
           0           0           0           0
MM charges                                 R   N=          28
  0.00000000E+00  0.00000000E+00  0.00000000E+00  0.00000000E+00  0.00000000E+00
  0.00000000E+00  0.00000000E+00  0.00000000E+00  0.00000000E+00  0.00000000E+00
  0.00000000E+00  0.00000000E+00  0.00000000E+00  0.00000000E+00  0.00000000E+00
  0.00000000E+00  0.00000000E+00  0.00000000E+00  0.00000000E+00  0.00000000E+00
  0.00000000E+00  0.00000000E+00  0.00000000E+00  0.00000000E+00  0.00000000E+00
  0.00000000E+00  0.00000000E+00  0.00000000E+00
Integer atomic weights                     I   N=          28
          12           1          12           1          12           1
          12           1          14          12           1          14
          12           1           1           1          12           1
           1           1          12           1           1           1
          12           1           1           1
Real atomic weights                        R   N=          28
  1.20000000E+01  1.00782504E+00  1.20000000E+01  1.00782504E+00  1.20000000E+01
  1.00782504E+00  1.20000000E+01  1.00782504E+00  1.40030740E+01  1.20000000E+01
  1.00782504E+00  1.40030740E+01  1.20000000E+01  1.00782504E+00  1.00782504E+00
  1.00782504E+00  1.20000000E+01  1.00782504E+00  1.00782504E+00  1.00782504E+00
  1.20000000E+01  1.00782504E+00  1.00782504E+00  1.00782504E+00  1.20000000E+01
  1.00782504E+00  1.00782504E+00  1.00782504E+00
Atom fragment info                         I   N=          28
           0           0           0           0           0           0
           0           0           0           0           0           0
           0           0           0           0           0           0
           0           0           0           0           0           0
           0           0           0           0
Atom residue num                           I   N=          28
           0           0           0           0           0           0
           0           0           0           0           0           0
           0           0           0           0           0           0
           0           0           0           0           0           0
           0           0           0           0
Nuclear spins                              I   N=          28
           0           1           0           1           0           1
           0           1           2           0           1           2
           0           1           1           1           0           1
           1           1           0           1           1           1
           0           1           1           1
Nuclear ZEff                               R   N=          28
 -3.60000000E+00 -1.00000000E+00 -3.60000000E+00 -1.00000000E+00 -3.60000000E+00
 -1.00000000E+00 -3.60000000E+00 -1.00000000E+00 -4.55000000E+00 -3.60000000E+00
 -1.00000000E+00 -4.55000000E+00 -3.60000000E+00 -1.00000000E+00 -1.00000000E+00
 -1.00000000E+00 -3.60000000E+00 -1.00000000E+00 -1.00000000E+00 -1.00000000E+00
 -3.60000000E+00 -1.00000000E+00 -1.00000000E+00 -1.00000000E+00 -3.60000000E+00
 -1.00000000E+00 -1.00000000E+00 -1.00000000E+00
Nuclear ZNuc                               R   N=          28
  6.00000000E+00  1.00000000E+00  6.00000000E+00  1.00000000E+00  6.00000000E+00
  1.00000000E+00  6.00000000E+00  1.00000000E+00  7.00000000E+00  6.00000000E+00
  1.00000000E+00  7.00000000E+00  6.00000000E+00  1.00000000E+00  1.00000000E+00
  1.00000000E+00  6.00000000E+00  1.00000000E+00  1.00000000E+00  1.00000000E+00
  6.00000000E+00  1.00000000E+00  1.00000000E+00  1.00000000E+00  6.00000000E+00
  1.00000000E+00  1.00000000E+00  1.00000000E+00
Nuclear QMom                               R   N=          28
  0.00000000E+00  0.00000000E+00  0.00000000E+00  0.00000000E+00  0.00000000E+00
  0.00000000E+00  0.00000000E+00  0.00000000E+00  2.04400000E+00  0.00000000E+00
  0.00000000E+00  2.04400000E+00  0.00000000E+00  0.00000000E+00  0.00000000E+00
  0.00000000E+00  0.00000000E+00  0.00000000E+00  0.00000000E+00  0.00000000E+00
  0.00000000E+00  0.00000000E+00  0.00000000E+00  0.00000000E+00  0.00000000E+00
  0.00000000E+00  0.00000000E+00  0.00000000E+00
Nuclear GFac                               R   N=          28
  0.00000000E+00  2.79284600E+00  0.00000000E+00  2.79284600E+00  0.00000000E+00
  2.79284600E+00  0.00000000E+00  2.79284600E+00  4.03761000E-01  0.00000000E+00
  2.79284600E+00  4.03761000E-01  0.00000000E+00  2.79284600E+00  2.79284600E+00
  2.79284600E+00  0.00000000E+00  2.79284600E+00  2.79284600E+00  2.79284600E+00
  0.00000000E+00  2.79284600E+00  2.79284600E+00  2.79284600E+00  0.00000000E+00
  2.79284600E+00  2.79284600E+00  2.79284600E+00
MicOpt                                     I   N=          28
          -1          -1          -1          -1          -1          -1
          -1          -1          -1          -1          -1          -1
          -1          -1          -1          -1          -1          -1
          -1          -1          -1          -1          -1          -1
          -1          -1          -1          -1
SymInf integers                            I   N=          26
           1           1           1           1           1           0
           0           0           0           0           0           0
           0           0           0           0           0           0
           0           0           0           0           0           0
           0           0
RotTr to input orientation                 R   N=          12
  5.82038520E-02 -9.97922331E-01  2.76284697E-02  9.23878811E-01  4.33584665E-02
 -3.80220971E-01  3.78233069E-01  4.76556828E-02  9.24482926E-01 -8.34383450E+00
  2.66393519E+00  6.64983069E-03
Number of contracted shells                I               95
Number of primitive shells                 I              206
Pure/Cartesian d shells                    I                1
Pure/Cartesian f shells                    I                0
Highest angular momentum                   I                2
Largest degree of contraction              I                6
Shell types                                I   N=          95
           0          -1          -1           2           0           0
           1           0          -1          -1           2           0
           0           1           0          -1          -1           2
           0           0           1           0          -1          -1
           2           0           0           1           0          -1
          -1           2           0          -1          -1           2
           0           0           1           0          -1          -1
           2           0          -1          -1           2           0
           0           1           0           0           1           0
           0           1           0          -1          -1           2
           0           0           1           0           0           1
           0           0           1           0          -1          -1
           2           0           0           1           0           0
           1           0           0           1           0          -1
          -1           2           0           0           1           0
           0           1           0           0           1
Number of primitives per shell             I   N=          95
           6           3           1           1           3           1
           1           6           3           1           1           3
           1           1           6           3           1           1
           3           1           1           6           3           1
           1           3           1           1           6           3
           1           1           6           3           1           1
           3           1           1           6           3           1
           1           6           3           1           1           3
           1           1           3           1           1           3
           1           1           6           3           1           1
           3           1           1           3           1           1
           3           1           1           6           3           1
           1           3           1           1           3           1
           1           3           1           1           6           3
           1           1           3           1           1           3
           1           1           3           1           1
Shell to atom map                          I   N=          95
           1           1           1           1           2           2
           2           3           3           3           3           4
           4           4           5           5           5           5
           6           6           6           7           7           7
           7           8           8           8           9           9
           9           9          10          10          10          10
          11          11          11          12          12          12
          12          13          13          13          13          14
          14          14          15          15          15          16
          16          16          17          17          17          17
          18          18          18          19          19          19
          20          20          20          21          21          21
          21          22          22          22          23          23
          23          24          24          24          25          25
          25          25          26          26          26          27
          27          27          28          28          28
Primitive exponents                        R   N=         206
  3.04752488E+03  4.57369518E+02  1.03948685E+02  2.92101553E+01  9.28666296E+00
  3.16392696E+00  7.86827235E+00  1.88128854E+00  5.44249258E-01  1.68714478E-01
  8.00000000E-01  1.87311370E+01  2.82539436E+00  6.40121692E-01  1.61277759E-01
  1.10000000E+00  3.04752488E+03  4.57369518E+02  1.03948685E+02  2.92101553E+01
  9.28666296E+00  3.16392696E+00  7.86827235E+00  1.88128854E+00  5.44249258E-01
  1.68714478E-01  8.00000000E-01  1.87311370E+01  2.82539436E+00  6.40121692E-01
  1.61277759E-01  1.10000000E+00  3.04752488E+03  4.57369518E+02  1.03948685E+02
  2.92101553E+01  9.28666296E+00  3.16392696E+00  7.86827235E+00  1.88128854E+00
  5.44249258E-01  1.68714478E-01  8.00000000E-01  1.87311370E+01  2.82539436E+00
  6.40121692E-01  1.61277759E-01  1.10000000E+00  3.04752488E+03  4.57369518E+02
  1.03948685E+02  2.92101553E+01  9.28666296E+00  3.16392696E+00  7.86827235E+00
  1.88128854E+00  5.44249258E-01  1.68714478E-01  8.00000000E-01  1.87311370E+01
  2.82539436E+00  6.40121692E-01  1.61277759E-01  1.10000000E+00  4.17351146E+03
  6.27457911E+02  1.42902093E+02  4.02343293E+01  1.28202129E+01  4.39043701E+00
  1.16263619E+01  2.71627981E+00  7.72218397E-01  2.12031498E-01  8.00000000E-01
  3.04752488E+03  4.57369518E+02  1.03948685E+02  2.92101553E+01  9.28666296E+00
  3.16392696E+00  7.86827235E+00  1.88128854E+00  5.44249258E-01  1.68714478E-01
  8.00000000E-01  1.87311370E+01  2.82539436E+00  6.40121692E-01  1.61277759E-01
  1.10000000E+00  4.17351146E+03  6.27457911E+02  1.42902093E+02  4.02343293E+01
  1.28202129E+01  4.39043701E+00  1.16263619E+01  2.71627981E+00  7.72218397E-01
  2.12031498E-01  8.00000000E-01  3.04752488E+03  4.57369518E+02  1.03948685E+02
  2.92101553E+01  9.28666296E+00  3.16392696E+00  7.86827235E+00  1.88128854E+00
  5.44249258E-01  1.68714478E-01  8.00000000E-01  1.87311370E+01  2.82539436E+00
  6.40121692E-01  1.61277759E-01  1.10000000E+00  1.87311370E+01  2.82539436E+00
  6.40121692E-01  1.61277759E-01  1.10000000E+00  1.87311370E+01  2.82539436E+00
  6.40121692E-01  1.61277759E-01  1.10000000E+00  3.04752488E+03  4.57369518E+02
  1.03948685E+02  2.92101553E+01  9.28666296E+00  3.16392696E+00  7.86827235E+00
  1.88128854E+00  5.44249258E-01  1.68714478E-01  8.00000000E-01  1.87311370E+01
  2.82539436E+00  6.40121692E-01  1.61277759E-01  1.10000000E+00  1.87311370E+01
  2.82539436E+00  6.40121692E-01  1.61277759E-01  1.10000000E+00  1.87311370E+01
  2.82539436E+00  6.40121692E-01  1.61277759E-01  1.10000000E+00  3.04752488E+03
  4.57369518E+02  1.03948685E+02  2.92101553E+01  9.28666296E+00  3.16392696E+00
  7.86827235E+00  1.88128854E+00  5.44249258E-01  1.68714478E-01  8.00000000E-01
  1.87311370E+01  2.82539436E+00  6.40121692E-01  1.61277759E-01  1.10000000E+00
  1.87311370E+01  2.82539436E+00  6.40121692E-01  1.61277759E-01  1.10000000E+00
  1.87311370E+01  2.82539436E+00  6.40121692E-01  1.61277759E-01  1.10000000E+00
  3.04752488E+03  4.57369518E+02  1.03948685E+02  2.92101553E+01  9.28666296E+00
  3.16392696E+00  7.86827235E+00  1.88128854E+00  5.44249258E-01  1.68714478E-01
  8.00000000E-01  1.87311370E+01  2.82539436E+00  6.40121692E-01  1.61277759E-01
  1.10000000E+00  1.87311370E+01  2.82539436E+00  6.40121692E-01  1.61277759E-01
  1.10000000E+00  1.87311370E+01  2.82539436E+00  6.40121692E-01  1.61277759E-01
  1.10000000E+00
Contraction coefficients                   R   N=         206
  1.83473713E-03  1.40373228E-02  6.88426223E-02  2.32184443E-01  4.67941348E-01
  3.62311985E-01 -1.19332420E-01 -1.60854152E-01  1.14345644E+00  1.00000000E+00
  1.00000000E+00  3.34946043E-02  2.34726953E-01  8.13757326E-01  1.00000000E+00
  1.00000000E+00  1.83473713E-03  1.40373228E-02  6.88426223E-02  2.32184443E-01
  4.67941348E-01  3.62311985E-01 -1.19332420E-01 -1.60854152E-01  1.14345644E+00
  1.00000000E+00  1.00000000E+00  3.34946043E-02  2.34726953E-01  8.13757326E-01
  1.00000000E+00  1.00000000E+00  1.83473713E-03  1.40373228E-02  6.88426223E-02
  2.32184443E-01  4.67941348E-01  3.62311985E-01 -1.19332420E-01 -1.60854152E-01
  1.14345644E+00  1.00000000E+00  1.00000000E+00  3.34946043E-02  2.34726953E-01
  8.13757326E-01  1.00000000E+00  1.00000000E+00  1.83473713E-03  1.40373228E-02
  6.88426223E-02  2.32184443E-01  4.67941348E-01  3.62311985E-01 -1.19332420E-01
 -1.60854152E-01  1.14345644E+00  1.00000000E+00  1.00000000E+00  3.34946043E-02
  2.34726953E-01  8.13757326E-01  1.00000000E+00  1.00000000E+00  1.83477216E-03
  1.39946270E-02  6.85865518E-02  2.32240873E-01  4.69069948E-01  3.60455199E-01
 -1.14961182E-01 -1.69117479E-01  1.14585195E+00  1.00000000E+00  1.00000000E+00
  1.83473713E-03  1.40373228E-02  6.88426223E-02  2.32184443E-01  4.67941348E-01
  3.62311985E-01 -1.19332420E-01 -1.60854152E-01  1.14345644E+00  1.00000000E+00
  1.00000000E+00  3.34946043E-02  2.34726953E-01  8.13757326E-01  1.00000000E+00
  1.00000000E+00  1.83477216E-03  1.39946270E-02  6.85865518E-02  2.32240873E-01
  4.69069948E-01  3.60455199E-01 -1.14961182E-01 -1.69117479E-01  1.14585195E+00
  1.00000000E+00  1.00000000E+00  1.83473713E-03  1.40373228E-02  6.88426223E-02
  2.32184443E-01  4.67941348E-01  3.62311985E-01 -1.19332420E-01 -1.60854152E-01
  1.14345644E+00  1.00000000E+00  1.00000000E+00  3.34946043E-02  2.34726953E-01
  8.13757326E-01  1.00000000E+00  1.00000000E+00  3.34946043E-02  2.34726953E-01
  8.13757326E-01  1.00000000E+00  1.00000000E+00  3.34946043E-02  2.34726953E-01
  8.13757326E-01  1.00000000E+00  1.00000000E+00  1.83473713E-03  1.40373228E-02
  6.88426223E-02  2.32184443E-01  4.67941348E-01  3.62311985E-01 -1.19332420E-01
 -1.60854152E-01  1.14345644E+00  1.00000000E+00  1.00000000E+00  3.34946043E-02
  2.34726953E-01  8.13757326E-01  1.00000000E+00  1.00000000E+00  3.34946043E-02
  2.34726953E-01  8.13757326E-01  1.00000000E+00  1.00000000E+00  3.34946043E-02
  2.34726953E-01  8.13757326E-01  1.00000000E+00  1.00000000E+00  1.83473713E-03
  1.40373228E-02  6.88426223E-02  2.32184443E-01  4.67941348E-01  3.62311985E-01
 -1.19332420E-01 -1.60854152E-01  1.14345644E+00  1.00000000E+00  1.00000000E+00
  3.34946043E-02  2.34726953E-01  8.13757326E-01  1.00000000E+00  1.00000000E+00
  3.34946043E-02  2.34726953E-01  8.13757326E-01  1.00000000E+00  1.00000000E+00
  3.34946043E-02  2.34726953E-01  8.13757326E-01  1.00000000E+00  1.00000000E+00
  1.83473713E-03  1.40373228E-02  6.88426223E-02  2.32184443E-01  4.67941348E-01
  3.62311985E-01 -1.19332420E-01 -1.60854152E-01  1.14345644E+00  1.00000000E+00
  1.00000000E+00  3.34946043E-02  2.34726953E-01  8.13757326E-01  1.00000000E+00
  1.00000000E+00  3.34946043E-02  2.34726953E-01  8.13757326E-01  1.00000000E+00
  1.00000000E+00  3.34946043E-02  2.34726953E-01  8.13757326E-01  1.00000000E+00
  1.00000000E+00
P(S=P) Contraction coefficients            R   N=         206
  0.00000000E+00  0.00000000E+00  0.00000000E+00  0.00000000E+00  0.00000000E+00
  0.00000000E+00  6.89990666E-02  3.16423961E-01  7.44308291E-01  1.00000000E+00
  0.00000000E+00  0.00000000E+00  0.00000000E+00  0.00000000E+00  0.00000000E+00
  0.00000000E+00  0.00000000E+00  0.00000000E+00  0.00000000E+00  0.00000000E+00
  0.00000000E+00  0.00000000E+00  6.89990666E-02  3.16423961E-01  7.44308291E-01
  1.00000000E+00  0.00000000E+00  0.00000000E+00  0.00000000E+00  0.00000000E+00
  0.00000000E+00  0.00000000E+00  0.00000000E+00  0.00000000E+00  0.00000000E+00
  0.00000000E+00  0.00000000E+00  0.00000000E+00  6.89990666E-02  3.16423961E-01
  7.44308291E-01  1.00000000E+00  0.00000000E+00  0.00000000E+00  0.00000000E+00
  0.00000000E+00  0.00000000E+00  0.00000000E+00  0.00000000E+00  0.00000000E+00
  0.00000000E+00  0.00000000E+00  0.00000000E+00  0.00000000E+00  6.89990666E-02
  3.16423961E-01  7.44308291E-01  1.00000000E+00  0.00000000E+00  0.00000000E+00
  0.00000000E+00  0.00000000E+00  0.00000000E+00  0.00000000E+00  0.00000000E+00
  0.00000000E+00  0.00000000E+00  0.00000000E+00  0.00000000E+00  0.00000000E+00
  6.75797439E-02  3.23907296E-01  7.40895140E-01  1.00000000E+00  0.00000000E+00
  0.00000000E+00  0.00000000E+00  0.00000000E+00  0.00000000E+00  0.00000000E+00
  0.00000000E+00  6.89990666E-02  3.16423961E-01  7.44308291E-01  1.00000000E+00
  0.00000000E+00  0.00000000E+00  0.00000000E+00  0.00000000E+00  0.00000000E+00
  0.00000000E+00  0.00000000E+00  0.00000000E+00  0.00000000E+00  0.00000000E+00
  0.00000000E+00  0.00000000E+00  6.75797439E-02  3.23907296E-01  7.40895140E-01
  1.00000000E+00  0.00000000E+00  0.00000000E+00  0.00000000E+00  0.00000000E+00
  0.00000000E+00  0.00000000E+00  0.00000000E+00  6.89990666E-02  3.16423961E-01
  7.44308291E-01  1.00000000E+00  0.00000000E+00  0.00000000E+00  0.00000000E+00
  0.00000000E+00  0.00000000E+00  0.00000000E+00  0.00000000E+00  0.00000000E+00
  0.00000000E+00  0.00000000E+00  0.00000000E+00  0.00000000E+00  0.00000000E+00
  0.00000000E+00  0.00000000E+00  0.00000000E+00  0.00000000E+00  0.00000000E+00
  0.00000000E+00  0.00000000E+00  0.00000000E+00  0.00000000E+00  6.89990666E-02
  3.16423961E-01  7.44308291E-01  1.00000000E+00  0.00000000E+00  0.00000000E+00
  0.00000000E+00  0.00000000E+00  0.00000000E+00  0.00000000E+00  0.00000000E+00
  0.00000000E+00  0.00000000E+00  0.00000000E+00  0.00000000E+00  0.00000000E+00
  0.00000000E+00  0.00000000E+00  0.00000000E+00  0.00000000E+00  0.00000000E+00
  0.00000000E+00  0.00000000E+00  0.00000000E+00  0.00000000E+00  0.00000000E+00
  6.89990666E-02  3.16423961E-01  7.44308291E-01  1.00000000E+00  0.00000000E+00
  0.00000000E+00  0.00000000E+00  0.00000000E+00  0.00000000E+00  0.00000000E+00
  0.00000000E+00  0.00000000E+00  0.00000000E+00  0.00000000E+00  0.00000000E+00
  0.00000000E+00  0.00000000E+00  0.00000000E+00  0.00000000E+00  0.00000000E+00
  0.00000000E+00  0.00000000E+00  0.00000000E+00  0.00000000E+00  0.00000000E+00
  0.00000000E+00  6.89990666E-02  3.16423961E-01  7.44308291E-01  1.00000000E+00
  0.00000000E+00  0.00000000E+00  0.00000000E+00  0.00000000E+00  0.00000000E+00
  0.00000000E+00  0.00000000E+00  0.00000000E+00  0.00000000E+00  0.00000000E+00
  0.00000000E+00  0.00000000E+00  0.00000000E+00  0.00000000E+00  0.00000000E+00
  0.00000000E+00
Coordinates of each shell                  R   N=         285
  4.56496703E+00 -9.86255495E-01  5.51778162E-04  4.56496703E+00 -9.86255495E-01
  5.51778162E-04  4.56496703E+00 -9.86255495E-01  5.51778162E-04  4.56496703E+00
 -9.86255495E-01  5.51778162E-04  4.41683493E+00 -3.03625775E+00  1.29284484E-03
  4.41683493E+00 -3.03625775E+00  1.29284484E-03  4.41683493E+00 -3.03625775E+00
  1.29284484E-03  2.34614900E+00  4.32250105E-01 -2.27497770E-04  2.34614900E+00
  4.32250105E-01 -2.27497770E-04  2.34614900E+00  4.32250105E-01 -2.27497770E-04
  2.34614900E+00  4.32250105E-01 -2.27497770E-04  2.42293280E+00  2.48076485E+00
 -1.66389440E-03  2.42293280E+00  2.48076485E+00 -1.66389440E-03  2.42293280E+00
  2.48076485E+00 -1.66389440E-03  7.33841967E-06 -7.69050281E-01  6.24282786E-04
  7.33841967E-06 -7.69050281E-01  6.24282786E-04  7.33841967E-06 -7.69050281E-01
  6.24282786E-04  7.33841967E-06 -7.69050281E-01  6.24282786E-04  1.21396999E-05
 -2.83094700E+00  1.98247933E-03  1.21396999E-05 -2.83094700E+00  1.98247933E-03
  1.21396999E-05 -2.83094700E+00  1.98247933E-03 -2.34615574E+00  4.32250221E-01
 -9.70077745E-05 -2.34615574E+00  4.32250221E-01 -9.70077745E-05 -2.34615574E+00
  4.32250221E-01 -9.70077745E-05 -2.34615574E+00  4.32250221E-01 -9.70077745E-05
 -2.42289947E+00  2.48076824E+00 -1.43958418E-03 -2.42289947E+00  2.48076824E+00
 -1.43958418E-03 -2.42289947E+00  2.48076824E+00 -1.43958418E-03 -6.91295318E+00
 -9.84262515E-02  7.87295255E-04 -6.91295318E+00 -9.84262515E-02  7.87295255E-04
 -6.91295318E+00 -9.84262515E-02  7.87295255E-04 -6.91295318E+00 -9.84262515E-02
  7.87295255E-04 -4.56497912E+00 -9.86274605E-01  6.06871052E-04 -4.56497912E+00
 -9.86274605E-01  6.06871052E-04 -4.56497912E+00 -9.86274605E-01  6.06871052E-04
 -4.56497912E+00 -9.86274605E-01  6.06871052E-04 -4.41688248E+00 -3.03628037E+00
  1.18731075E-03 -4.41688248E+00 -3.03628037E+00  1.18731075E-03 -4.41688248E+00
 -3.03628037E+00  1.18731075E-03  6.91296036E+00 -9.84156511E-02  6.34439603E-04
  6.91296036E+00 -9.84156511E-02  6.34439603E-04  6.91296036E+00 -9.84156511E-02
  6.34439603E-04  6.91296036E+00 -9.84156511E-02  6.34439603E-04  9.10227510E+00
 -1.79192411E+00 -6.49380720E-04  9.10227510E+00 -1.79192411E+00 -6.49380720E-04
  9.10227510E+00 -1.79192411E+00 -6.49380720E-04  9.10227510E+00 -1.79192411E+00
 -6.49380720E-04  1.02590665E+01 -1.45779048E+00  1.68034541E+00  1.02590665E+01
 -1.45779048E+00  1.68034541E+00  1.02590665E+01 -1.45779048E+00  1.68034541E+00
  8.47124564E+00 -3.75330477E+00  2.49952381E-04  8.47124564E+00 -3.75330477E+00
  2.49952381E-04  8.47124564E+00 -3.75330477E+00  2.49952381E-04  1.02565880E+01
 -1.45858671E+00 -1.68353038E+00  1.02565880E+01 -1.45858671E+00 -1.68353038E+00
  1.02565880E+01 -1.45858671E+00 -1.68353038E+00  7.41738832E+00  2.62601267E+00
 -3.07280251E-04  7.41738832E+00  2.62601267E+00 -3.07280251E-04  7.41738832E+00
  2.62601267E+00 -3.07280251E-04  7.41738832E+00  2.62601267E+00 -3.07280251E-04
  6.61738729E+00  3.51157711E+00 -1.68906790E+00  6.61738729E+00  3.51157711E+00
 -1.68906790E+00  6.61738729E+00  3.51157711E+00 -1.68906790E+00  6.60728716E+00
  3.51424139E+00  1.68212440E+00  6.60728716E+00  3.51424139E+00  1.68212440E+00
  6.60728716E+00  3.51424139E+00  1.68212440E+00  9.45287718E+00  2.93042221E+00
  5.69401994E-03  9.45287718E+00  2.93042221E+00  5.69401994E-03  9.45287718E+00
  2.93042221E+00  5.69401994E-03 -7.41737731E+00  2.62599648E+00  2.44835131E-04
 -7.41737731E+00  2.62599648E+00  2.44835131E-04 -7.41737731E+00  2.62599648E+00
  2.44835131E-04 -7.41737731E+00  2.62599648E+00  2.44835131E-04 -6.60618027E+00
  3.51418018E+00  1.68216328E+00 -6.60618027E+00  3.51418018E+00  1.68216328E+00
 -6.60618027E+00  3.51418018E+00  1.68216328E+00 -6.61852871E+00  3.51163702E+00
 -1.68902764E+00 -6.61852871E+00  3.51163702E+00 -1.68902764E+00 -6.61852871E+00
  3.51163702E+00 -1.68902764E+00 -9.45286656E+00  2.93040298E+00  7.62959073E-03
 -9.45286656E+00  2.93040298E+00  7.62959073E-03 -9.45286656E+00  2.93040298E+00
  7.62959073E-03 -9.10226855E+00 -1.79189244E+00 -1.19614161E-03 -9.10226855E+00
 -1.79189244E+00 -1.19614161E-03 -9.10226855E+00 -1.79189244E+00 -1.19614161E-03
 -9.10226855E+00 -1.79189244E+00 -1.19614161E-03 -8.47129504E+00 -3.75329666E+00
 -1.31092084E-03 -8.47129504E+00 -3.75329666E+00 -1.31092084E-03 -8.47129504E+00
 -3.75329666E+00 -1.31092084E-03 -1.02590219E+01 -1.45857310E+00  1.67999380E+00
 -1.02590219E+01 -1.45857310E+00  1.67999380E+00 -1.02590219E+01 -1.45857310E+00
  1.67999380E+00 -1.02566439E+01 -1.45773913E+00 -1.68387768E+00 -1.02566439E+01
 -1.45773913E+00 -1.68387768E+00 -1.02566439E+01 -1.45773913E+00 -1.68387768E+00
Constraint Structure                       R   N=          84
  4.72136885E+00 -1.58349539E+00 -6.28800685E-01  4.55750809E+00 -3.56377623E+00
 -1.00316629E+00  2.61600051E+00 -1.67727966E-01 -2.80193635E-01  2.77986127E+00
  1.81255290E+00  9.41717834E-02 -1.23007250E-02 -1.40902397E+00 -4.22862320E-01
 -1.76161684E-01 -3.38930377E+00 -7.97233291E-01 -2.11766933E+00  6.74494366E-03
 -7.42631080E-02 -1.95380859E+00  1.98702593E+00  3.00101777E-01 -6.75564118E+00
  1.16867767E-01  1.15806298E-01 -4.74597087E+00 -1.23454935E+00 -2.16940551E-01
 -4.90983183E+00 -3.21482912E+00 -5.91311706E-01  7.23020161E+00 -3.98620750E-01
 -4.92623104E-01  8.16011161E+00 -4.97331195E-01  2.12314401E+00  6.87910031E+00
  4.95972960E-01  3.33180818E+00  8.29183900E+00 -2.42494553E+00  2.71935115E+00
  9.98626881E+00  3.65128573E-01  2.22226646E+00  7.04923033E+00  2.24959709E+00
 -1.31171143E+00  6.37235706E+00  2.32144754E+00 -3.21570518E+00  5.76821903E+00
  3.24290124E+00 -1.03047243E-01  8.87538751E+00  3.11205686E+00 -1.21258899E+00
 -6.53052392E+00  2.83743983E+00  6.30125193E-01 -4.79736068E+00  3.19748321E+00
  1.60737957E+00 -6.54404304E+00  3.85687165E+00 -1.11603864E+00 -8.08630719E+00
  3.43824495E+00  1.77340285E+00 -9.26447467E+00 -1.06800304E+00 -2.03911828E-02
 -9.20089411E+00 -2.63627960E+00 -1.29513754E+00 -9.80505450E+00 -1.71482707E+00
  1.81751638E+00 -1.06136331E+01  2.84640598E-01 -6.82689362E-01
Num ILSW                                   I              100
ILSW                                       I   N=         100