 Entering Gaussian System, Link 0=/opt/app/gaussian09/e01/g09/g09.exec
 Input=2_pp_opt.gjf
 Output=2_pp_opt.log
 Initial command:
 /opt/app/gaussian09/e01/g09/l1.exe "./Gau-61858.inp" -scrdir="./"
 Entering Link 1 = /opt/app/gaussian09/e01/g09/l1.exe PID=     61862.
  
 Copyright (c) 1988,1990,1992,1993,1995,1998,2003,2009,2015,
            Gaussian, Inc.  All Rights Reserved.
  
 This is part of the Gaussian(R) 09 program.  It is based on
 the Gaussian(R) 03 system (copyright 2003, Gaussian, Inc.),
 the Gaussian(R) 98 system (copyright 1998, Gaussian, Inc.),
 the Gaussian(R) 94 system (copyright 1995, Gaussian, Inc.),
 the Gaussian 92(TM) system (copyright 1992, Gaussian, Inc.),
 the Gaussian 90(TM) system (copyright 1990, Gaussian, Inc.),
 the Gaussian 88(TM) system (copyright 1988, Gaussian, Inc.),
 the Gaussian 86(TM) system (copyright 1986, Carnegie Mellon
 University), and the Gaussian 82(TM) system (copyright 1983,
 Carnegie Mellon University). Gaussian is a federally registered
 trademark of Gaussian, Inc.
  
 This software contains proprietary and confidential information,
 including trade secrets, belonging to Gaussian, Inc.
  
 This software is provided under written license and may be
 used, copied, transmitted, or stored only in accord with that
 written license.
  
 The following legend is applicable only to US Government
 contracts under FAR:
  
                    RESTRICTED RIGHTS LEGEND
  
 Use, reproduction and disclosure by the US Government is
 subject to restrictions as set forth in subparagraphs (a)
 and (c) of the Commercial Computer Software - Restricted
 Rights clause in FAR 52.227-19.
  
 Gaussian, Inc.
 340 Quinnipiac St., Bldg. 40, Wallingford CT 06492
  
  
 ---------------------------------------------------------------
 Warning -- This program may not be used in any manner that
 competes with the business of Gaussian, Inc. or will provide
 assistance to any competitor of Gaussian, Inc.  The licensee
 of this program is prohibited from giving any competitor of
 Gaussian, Inc. access to this program.  By using this program,
 the user acknowledges that Gaussian, Inc. is engaged in the
 business of creating and licensing software in the field of
 computational chemistry and represents and warrants to the
 licensee that it is not a competitor of Gaussian, Inc. and that
 it will not use this program in any manner prohibited above.
 ---------------------------------------------------------------
  

 Cite this work as:
 Gaussian 09, Revision E.01,
 M. J. Frisch, G. W. Trucks, H. B. Schlegel, G. E. Scuseria, 
 M. A. Robb, J. R. Cheeseman, G. Scalmani, V. Barone, B. Mennucci, 
 G. A. Petersson, H. Nakatsuji, M. Caricato, X. Li, H. P. Hratchian, 
 A. F. Izmaylov, J. Bloino, G. Zheng, J. L. Sonnenberg, M. Hada, 
 M. Ehara, K. Toyota, R. Fukuda, J. Hasegawa, M. Ishida, T. Nakajima, 
 Y. Honda, O. Kitao, H. Nakai, T. Vreven, J. A. Montgomery, Jr., 
 J. E. Peralta, F. Ogliaro, M. Bearpark, J. J. Heyd, E. Brothers, 
 K. N. Kudin, V. N. Staroverov, T. Keith, R. Kobayashi, J. Normand, 
 K. Raghavachari, A. Rendell, J. C. Burant, S. S. Iyengar, J. Tomasi, 
 M. Cossi, N. Rega, J. M. Millam, M. Klene, J. E. Knox, J. B. Cross, 
 V. Bakken, C. Adamo, J. Jaramillo, R. Gomperts, R. E. Stratmann, 
 O. Yazyev, A. J. Austin, R. Cammi, C. Pomelli, J. W. Ochterski, 
 R. L. Martin, K. Morokuma, V. G. Zakrzewski, G. A. Voth, 
 P. Salvador, J. J. Dannenberg, S. Dapprich, A. D. Daniels, 
 O. Farkas, J. B. Foresman, J. V. Ortiz, J. Cioslowski, 
 and D. J. Fox, Gaussian, Inc., Wallingford CT, 2013.
 
 ******************************************
 Gaussian 09:  ES64L-G09RevE.01 30-Nov-2015
                 8-Jun-2021 
 ******************************************
 %chk=2_pp_opt.chk
 ---------------------------------------------------
 #p opt b3lyp/6-31g(d,p) geom=connectivity SCF=tight
 ---------------------------------------------------
 1/14=-1,18=20,19=15,26=3,38=1,57=2/1,3;
 2/9=110,12=2,17=6,18=5,40=1/2;
 3/5=1,6=6,7=101,11=2,16=1,25=1,30=1,71=1,74=-5/1,2,3;
 4//1;
 5/5=2,32=2,38=5/2;
 6/7=2,8=2,9=2,10=2,28=1/1;
 7//1,2,3,16;
 1/14=-1,18=20,19=15,26=3/3(2);
 2/9=110/2;
 99//99;
 2/9=110/2;
 3/5=1,6=6,7=101,11=2,16=1,25=1,30=1,71=1,74=-5/1,2,3;
 4/5=5,16=3,69=1/1;
 5/5=2,32=2,38=5/2;
 7//1,2,3,16;
 1/14=-1,18=20,19=15,26=3/3(-5);
 2/9=110/2;
 6/7=2,8=2,9=2,10=2,19=2,28=1/1;
 99/9=1/99;
 Leave Link    1 at Tue Jun  8 23:16:57 2021, MaxMem=           0 cpu:         0.0
 (Enter /opt/app/gaussian09/e01/g09/l101.exe)
 ---
 opt
 ---
 Symbolic Z-matrix:
 Charge =  1 Multiplicity = 1
 C                    -5.21993  -1.19288  -0.15952 
 H                    -6.28901  -1.17741  -0.11795 
 C                    -4.52488  -0.0295   -0.15847 
 H                    -3.4558   -0.04496  -0.20004 
 C                    -5.27372   1.31479  -0.09744 
 H                    -6.3428    1.33026  -0.05588 
 C                    -4.57866   2.47818  -0.0964 
 H                    -3.50958   2.46271  -0.13797 
 N                    -4.66404   4.93297  -0.03438 
 C                    -5.3275    3.82247  -0.03538 
 H                    -6.39658   3.83794   0.00619 
 N                    -4.50513  -2.47607  -0.21777 
 C                    -4.21351  -2.93693   1.14731 
 H                    -3.60486  -2.21193   1.64613 
 H                    -5.13019  -3.06336   1.68454 
 H                    -3.69321  -3.87095   1.10491 
 C                    -3.24576  -2.30237  -0.95583 
 H                    -3.45803  -1.96691  -1.94946 
 H                    -2.63711  -1.57737  -0.45701 
 H                    -2.72547  -3.23639  -0.99823 
 C                    -3.1953    4.91172  -0.09149 
 H                    -2.83295   4.0212    0.37817 
 H                    -2.87777   4.93067  -1.11311 
 H                    -2.80609   5.76782   0.41892 
 C                    -5.37884   6.21616   0.02386 
 H                    -6.33435   6.11383  -0.44668 
 H                    -5.51343   6.50339   1.04576 
 H                    -4.80902   6.96527  -0.4851 
 
 NAtoms=     28 NQM=       28 NQMF=       0 NMMI=      0 NMMIF=      0
                NMic=       0 NMicF=      0.
                    Isotopes and Nuclear Properties:
 (Nuclear quadrupole moments (NQMom) in fm**2, nuclear magnetic moments (NMagM)
  in nuclear magnetons)

  Atom         1           2           3           4           5           6           7           8           9          10
 IAtWgt=          12           1          12           1          12           1          12           1          14          12
 AtmWgt=  12.0000000   1.0078250  12.0000000   1.0078250  12.0000000   1.0078250  12.0000000   1.0078250  14.0030740  12.0000000
 NucSpn=           0           1           0           1           0           1           0           1           2           0
 AtZEff=   0.0000000   0.0000000   0.0000000   0.0000000   0.0000000   0.0000000   0.0000000   0.0000000   0.0000000   0.0000000
 NQMom=    0.0000000   0.0000000   0.0000000   0.0000000   0.0000000   0.0000000   0.0000000   0.0000000   2.0440000   0.0000000
 NMagM=    0.0000000   2.7928460   0.0000000   2.7928460   0.0000000   2.7928460   0.0000000   2.7928460   0.4037610   0.0000000
 AtZNuc=   6.0000000   1.0000000   6.0000000   1.0000000   6.0000000   1.0000000   6.0000000   1.0000000   7.0000000   6.0000000

  Atom        11          12          13          14          15          16          17          18          19          20
 IAtWgt=           1          14          12           1           1           1          12           1           1           1
 AtmWgt=   1.0078250  14.0030740  12.0000000   1.0078250   1.0078250   1.0078250  12.0000000   1.0078250   1.0078250   1.0078250
 NucSpn=           1           2           0           1           1           1           0           1           1           1
 AtZEff=   0.0000000   0.0000000   0.0000000   0.0000000   0.0000000   0.0000000   0.0000000   0.0000000   0.0000000   0.0000000
 NQMom=    0.0000000   2.0440000   0.0000000   0.0000000   0.0000000   0.0000000   0.0000000   0.0000000   0.0000000   0.0000000
 NMagM=    2.7928460   0.4037610   0.0000000   2.7928460   2.7928460   2.7928460   0.0000000   2.7928460   2.7928460   2.7928460
 AtZNuc=   1.0000000   7.0000000   6.0000000   1.0000000   1.0000000   1.0000000   6.0000000   1.0000000   1.0000000   1.0000000

  Atom        21          22          23          24          25          26          27          28
 IAtWgt=          12           1           1           1          12           1           1           1
 AtmWgt=  12.0000000   1.0078250   1.0078250   1.0078250  12.0000000   1.0078250   1.0078250   1.0078250
 NucSpn=           0           1           1           1           0           1           1           1
 AtZEff=   0.0000000   0.0000000   0.0000000   0.0000000   0.0000000   0.0000000   0.0000000   0.0000000
 NQMom=    0.0000000   0.0000000   0.0000000   0.0000000   0.0000000   0.0000000   0.0000000   0.0000000
 NMagM=    0.0000000   2.7928460   2.7928460   2.7928460   0.0000000   2.7928460   2.7928460   2.7928460
 AtZNuc=   6.0000000   1.0000000   1.0000000   1.0000000   6.0000000   1.0000000   1.0000000   1.0000000
 Leave Link  101 at Tue Jun  8 23:16:57 2021, MaxMem=    33554432 cpu:         0.1
 (Enter /opt/app/gaussian09/e01/g09/l103.exe)

 GradGradGradGradGradGradGradGradGradGradGradGradGradGradGradGradGradGrad
 Berny optimization.
 Initialization pass.
                           ----------------------------
                           !    Initial Parameters    !
                           ! (Angstroms and Degrees)  !
 --------------------------                            --------------------------
 ! Name  Definition              Value          Derivative Info.                !
 --------------------------------------------------------------------------------
 ! R1    R(1,2)                  1.07           estimate D2E/DX2                !
 ! R2    R(1,3)                  1.3552         estimate D2E/DX2                !
 ! R3    R(1,12)                 1.47           estimate D2E/DX2                !
 ! R4    R(3,4)                  1.07           estimate D2E/DX2                !
 ! R5    R(3,5)                  1.54           estimate D2E/DX2                !
 ! R6    R(5,6)                  1.07           estimate D2E/DX2                !
 ! R7    R(5,7)                  1.3552         estimate D2E/DX2                !
 ! R8    R(7,8)                  1.07           estimate D2E/DX2                !
 ! R9    R(7,10)                 1.54           estimate D2E/DX2                !
 ! R10   R(9,10)                 1.2936         estimate D2E/DX2                !
 ! R11   R(9,21)                 1.47           estimate D2E/DX2                !
 ! R12   R(9,25)                 1.47           estimate D2E/DX2                !
 ! R13   R(10,11)                1.07           estimate D2E/DX2                !
 ! R14   R(12,13)                1.47           estimate D2E/DX2                !
 ! R15   R(12,17)                1.47           estimate D2E/DX2                !
 ! R16   R(13,14)                1.07           estimate D2E/DX2                !
 ! R17   R(13,15)                1.07           estimate D2E/DX2                !
 ! R18   R(13,16)                1.07           estimate D2E/DX2                !
 ! R19   R(17,18)                1.07           estimate D2E/DX2                !
 ! R20   R(17,19)                1.07           estimate D2E/DX2                !
 ! R21   R(17,20)                1.07           estimate D2E/DX2                !
 ! R22   R(21,22)                1.07           estimate D2E/DX2                !
 ! R23   R(21,23)                1.07           estimate D2E/DX2                !
 ! R24   R(21,24)                1.07           estimate D2E/DX2                !
 ! R25   R(25,26)                1.07           estimate D2E/DX2                !
 ! R26   R(25,27)                1.07           estimate D2E/DX2                !
 ! R27   R(25,28)                1.07           estimate D2E/DX2                !
 ! A1    A(2,1,3)              120.0            estimate D2E/DX2                !
 ! A2    A(2,1,12)             120.0            estimate D2E/DX2                !
 ! A3    A(3,1,12)             120.0            estimate D2E/DX2                !
 ! A4    A(1,3,4)              120.0            estimate D2E/DX2                !
 ! A5    A(1,3,5)              120.0            estimate D2E/DX2                !
 ! A6    A(4,3,5)              120.0            estimate D2E/DX2                !
 ! A7    A(3,5,6)              120.0            estimate D2E/DX2                !
 ! A8    A(3,5,7)              120.0            estimate D2E/DX2                !
 ! A9    A(6,5,7)              120.0            estimate D2E/DX2                !
 ! A10   A(5,7,8)              120.0            estimate D2E/DX2                !
 ! A11   A(5,7,10)             120.0            estimate D2E/DX2                !
 ! A12   A(8,7,10)             120.0            estimate D2E/DX2                !
 ! A13   A(10,9,21)            120.0            estimate D2E/DX2                !
 ! A14   A(10,9,25)            120.0            estimate D2E/DX2                !
 ! A15   A(21,9,25)            120.0            estimate D2E/DX2                !
 ! A16   A(7,10,9)             120.0            estimate D2E/DX2                !
 ! A17   A(7,10,11)            120.0            estimate D2E/DX2                !
 ! A18   A(9,10,11)            120.0            estimate D2E/DX2                !
 ! A19   A(1,12,13)            109.4712         estimate D2E/DX2                !
 ! A20   A(1,12,17)            109.4712         estimate D2E/DX2                !
 ! A21   A(13,12,17)           109.4712         estimate D2E/DX2                !
 ! A22   A(12,13,14)           109.4712         estimate D2E/DX2                !
 ! A23   A(12,13,15)           109.4712         estimate D2E/DX2                !
 ! A24   A(12,13,16)           109.4712         estimate D2E/DX2                !
 ! A25   A(14,13,15)           109.4712         estimate D2E/DX2                !
 ! A26   A(14,13,16)           109.4712         estimate D2E/DX2                !
 ! A27   A(15,13,16)           109.4712         estimate D2E/DX2                !
 ! A28   A(12,17,18)           109.4712         estimate D2E/DX2                !
 ! A29   A(12,17,19)           109.4712         estimate D2E/DX2                !
 ! A30   A(12,17,20)           109.4712         estimate D2E/DX2                !
 ! A31   A(18,17,19)           109.4712         estimate D2E/DX2                !
 ! A32   A(18,17,20)           109.4712         estimate D2E/DX2                !
 ! A33   A(19,17,20)           109.4712         estimate D2E/DX2                !
 ! A34   A(9,21,22)            109.4712         estimate D2E/DX2                !
 ! A35   A(9,21,23)            109.4712         estimate D2E/DX2                !
 ! A36   A(9,21,24)            109.4712         estimate D2E/DX2                !
 ! A37   A(22,21,23)           109.4712         estimate D2E/DX2                !
 ! A38   A(22,21,24)           109.4712         estimate D2E/DX2                !
 ! A39   A(23,21,24)           109.4712         estimate D2E/DX2                !
 ! A40   A(9,25,26)            109.4712         estimate D2E/DX2                !
 ! A41   A(9,25,27)            109.4712         estimate D2E/DX2                !
 ! A42   A(9,25,28)            109.4712         estimate D2E/DX2                !
 ! A43   A(26,25,27)           109.4712         estimate D2E/DX2                !
 ! A44   A(26,25,28)           109.4712         estimate D2E/DX2                !
 ! A45   A(27,25,28)           109.4712         estimate D2E/DX2                !
 ! D1    D(2,1,3,4)           -180.0            estimate D2E/DX2                !
 ! D2    D(2,1,3,5)             -0.0002         estimate D2E/DX2                !
 ! D3    D(12,1,3,4)             0.0            estimate D2E/DX2                !
 ! D4    D(12,1,3,5)           179.9999         estimate D2E/DX2                !
 ! D5    D(2,1,12,13)          -90.0            estimate D2E/DX2                !
 ! D6    D(2,1,12,17)          150.0            estimate D2E/DX2                !
 ! D7    D(3,1,12,13)           90.0            estimate D2E/DX2                !
 ! D8    D(3,1,12,17)          -30.0            estimate D2E/DX2                !
 ! D9    D(1,3,5,6)              0.0            estimate D2E/DX2                !
 ! D10   D(1,3,5,7)           -179.9998         estimate D2E/DX2                !
 ! D11   D(4,3,5,6)            179.9998         estimate D2E/DX2                !
 ! D12   D(4,3,5,7)              0.0            estimate D2E/DX2                !
 ! D13   D(3,5,7,8)              0.0            estimate D2E/DX2                !
 ! D14   D(3,5,7,10)           179.9998         estimate D2E/DX2                !
 ! D15   D(6,5,7,8)           -179.9998         estimate D2E/DX2                !
 ! D16   D(6,5,7,10)             0.0            estimate D2E/DX2                !
 ! D17   D(5,7,10,9)          -179.9998         estimate D2E/DX2                !
 ! D18   D(5,7,10,11)            0.0            estimate D2E/DX2                !
 ! D19   D(8,7,10,9)             0.0            estimate D2E/DX2                !
 ! D20   D(8,7,10,11)          179.9998         estimate D2E/DX2                !
 ! D21   D(21,9,10,7)           -0.0001         estimate D2E/DX2                !
 ! D22   D(21,9,10,11)        -179.9999         estimate D2E/DX2                !
 ! D23   D(25,9,10,7)          179.9999         estimate D2E/DX2                !
 ! D24   D(25,9,10,11)           0.0001         estimate D2E/DX2                !
 ! D25   D(10,9,21,22)         -30.0            estimate D2E/DX2                !
 ! D26   D(10,9,21,23)          90.0            estimate D2E/DX2                !
 ! D27   D(10,9,21,24)        -150.0            estimate D2E/DX2                !
 ! D28   D(25,9,21,22)         150.0            estimate D2E/DX2                !
 ! D29   D(25,9,21,23)         -90.0            estimate D2E/DX2                !
 ! D30   D(25,9,21,24)          30.0            estimate D2E/DX2                !
 ! D31   D(10,9,25,26)         -30.0            estimate D2E/DX2                !
 ! D32   D(10,9,25,27)          90.0            estimate D2E/DX2                !
 ! D33   D(10,9,25,28)        -150.0            estimate D2E/DX2                !
 ! D34   D(21,9,25,26)         150.0            estimate D2E/DX2                !
 ! D35   D(21,9,25,27)         -90.0            estimate D2E/DX2                !
 ! D36   D(21,9,25,28)          30.0            estimate D2E/DX2                !
 ! D37   D(1,12,13,14)         -60.0            estimate D2E/DX2                !
 ! D38   D(1,12,13,15)          60.0            estimate D2E/DX2                !
 ! D39   D(1,12,13,16)         180.0            estimate D2E/DX2                !
 ! D40   D(17,12,13,14)         60.0            estimate D2E/DX2                !
 ! D41   D(17,12,13,15)        180.0            estimate D2E/DX2                !
 ! D42   D(17,12,13,16)        -60.0            estimate D2E/DX2                !
 ! D43   D(1,12,17,18)         -60.0            estimate D2E/DX2                !
 ! D44   D(1,12,17,19)          60.0            estimate D2E/DX2                !
 ! D45   D(1,12,17,20)        -180.0            estimate D2E/DX2                !
 ! D46   D(13,12,17,18)        180.0            estimate D2E/DX2                !
 ! D47   D(13,12,17,19)        -60.0            estimate D2E/DX2                !
 ! D48   D(13,12,17,20)         60.0            estimate D2E/DX2                !
 --------------------------------------------------------------------------------
 Trust Radius=3.00D-01 FncErr=1.00D-07 GrdErr=1.00D-06
 Number of steps in this run=    130 maximum allowed number of steps=    168.
 GradGradGradGradGradGradGradGradGradGradGradGradGradGradGradGradGradGrad

 Leave Link  103 at Tue Jun  8 23:16:57 2021, MaxMem=    33554432 cpu:         0.0
 (Enter /opt/app/gaussian09/e01/g09/l202.exe)
                          Input orientation:                          
 ---------------------------------------------------------------------
 Center     Atomic      Atomic             Coordinates (Angstroms)
 Number     Number       Type             X           Y           Z
 ---------------------------------------------------------------------
      1          6           0       -5.219932   -1.192881   -0.159522
      2          1           0       -6.289013   -1.177412   -0.117952
      3          6           0       -4.524876   -0.029497   -0.158468
      4          1           0       -3.455795   -0.044965   -0.200038
      5          6           0       -5.273715    1.314794   -0.097445
      6          1           0       -6.342795    1.330262   -0.055878
      7          6           0       -4.578658    2.478178   -0.096396
      8          1           0       -3.509578    2.462709   -0.137966
      9          7           0       -4.664035    4.932971   -0.034379
     10          6           0       -5.327498    3.822468   -0.035377
     11          1           0       -6.396578    3.837936    0.006190
     12          7           0       -4.505131   -2.476066   -0.217774
     13          6           0       -4.213509   -2.936926    1.147314
     14          1           0       -3.604855   -2.211926    1.646128
     15          1           0       -5.130191   -3.063361    1.684536
     16          1           0       -3.693212   -3.870945    1.104912
     17          6           0       -3.245764   -2.302366   -0.955828
     18          1           0       -3.458034   -1.966910   -1.949463
     19          1           0       -2.637110   -1.577366   -0.457013
     20          1           0       -2.725467   -3.236385   -0.998230
     21          6           0       -3.195298    4.911720   -0.091487
     22          1           0       -2.832949    4.021199    0.378168
     23          1           0       -2.877774    4.930671   -1.113113
     24          1           0       -2.806093    5.767820    0.418915
     25          6           0       -5.378836    6.216157    0.023863
     26          1           0       -6.334355    6.113833   -0.446684
     27          1           0       -5.513433    6.503389    1.045764
     28          1           0       -4.809019    6.965268   -0.485097
 ---------------------------------------------------------------------
                    Distance matrix (angstroms):
                    1          2          3          4          5
     1  C    0.000000
     2  H    1.070000   0.000000
     3  C    1.355200   2.105120   0.000000
     4  H    2.105120   3.052261   1.070000   0.000000
     5  C    2.509019   2.691159   1.540000   2.272510   0.000000
     6  H    2.763659   2.509019   2.272510   3.201062   1.070000
     7  C    3.727182   4.035977   2.509019   2.763659   1.355200
     8  H    4.035977   4.579972   2.691159   2.509019   2.105120
     9  N    6.152295   6.323315   4.965969   5.125147   3.669727
    10  C    5.018037   5.092163   3.936621   4.299700   2.509019
    11  H    5.169243   5.018037   4.299700   4.875208   2.763659
    12  N    1.470000   2.208778   2.447368   2.647957   3.869860
    13  C    2.400500   3.000750   3.202368   3.279165   4.555280
    14  H    2.628174   3.374448   2.977584   2.850661   4.273511
    15  H    2.628174   2.854581   3.601028   3.932675   4.729090
    16  H    3.331921   3.935569   4.128501   4.049369   5.552976
    17  C    2.400500   3.350958   2.727241   2.389809   4.234766
    18  H    2.628174   3.462973   2.845942   2.598917   4.182852
    19  H    2.628174   3.689352   2.459408   1.756284   3.930084
    20  H    3.331921   4.208695   3.771897   3.369815   5.293223
    21  C    6.431945   6.830029   5.117410   4.964712   4.154242
    22  H    5.759638   6.262274   4.422526   4.154028   3.675348
    23  H    6.625174   7.066511   5.312961   5.091637   4.454962
    24  H    7.390032   7.788146   6.074246   5.881640   5.117151
    25  C    7.413010   7.450731   6.306400   6.553615   4.903991
    26  H    7.396788   7.298793   6.410755   6.802774   4.927241
    27  H    7.795603   7.807078   6.716101   6.976162   5.318450
    28  H    8.174976   8.284227   7.008149   7.145337   5.682788
                    6          7          8          9         10
     6  H    0.000000
     7  C    2.105120   0.000000
     8  H    3.052261   1.070000   0.000000
     9  N    3.974696   2.457060   2.728680   0.000000
    10  C    2.691159   1.540000   2.272510   1.293600   0.000000
    11  H    2.509019   2.272510   3.201062   2.049989   1.070000
    12  N    4.229817   4.956276   5.038750   7.413010   6.354612
    13  C    4.918376   5.568078   5.594955   7.970862   6.951915
    14  H    4.789597   5.097230   5.004426   7.415896   6.496835
    15  H    4.878870   5.846756   6.040310   8.192270   7.100118
    16  H    5.951494   6.522156   6.457062   8.930253   7.947311
    17  C    4.857725   5.036747   4.841945   7.430387   6.534097
    18  H    4.772720   4.944539   4.785991   7.261566   6.377736
    19  H    4.727294   4.510775   4.145504   6.831656   6.047658
    20  H    5.901471   6.074854   5.816748   8.451357   7.584527
    21  C    4.768107   2.799257   2.469531   1.470000   2.394972
    22  H    4.443936   2.377736   1.775701   2.086720   2.536393
    23  H    5.107550   3.153006   2.727806   2.086720   2.896684
    24  H    5.694350   3.772172   3.424729   2.086720   3.216872
    25  C    4.980717   3.824557   4.196270   1.470000   2.394972
    26  H    4.799516   4.052550   4.626595   2.086720   2.536393
    27  H    5.353756   4.287267   4.663019   2.086720   2.896684
    28  H    5.855766   4.509782   4.699158   2.086720   3.216872
                   11         12         13         14         15
    11  H    0.000000
    12  N    6.595025   0.000000
    13  C    7.208794   1.470000   0.000000
    14  H    6.861775   2.086720   1.070000   0.000000
    15  H    7.214464   2.086720   1.070000   1.747303   0.000000
    16  H    8.242708   2.086720   1.070000   1.747303   1.747303
    17  C    6.968243   1.470000   2.400500   2.628174   3.331921
    18  H    6.793811   2.086720   3.331921   3.606919   4.147803
    19  H    6.608605   2.086720   2.628174   2.400500   3.606919
    20  H    8.033177   2.086720   2.628174   2.969085   3.606919
    21  C    3.377979   7.504065   8.010781   7.343935   8.396427
    22  H    3.587675   6.735414   7.135337   6.407450   7.561410
    23  H    3.850830   7.636078   8.294143   7.691473   8.763833
    24  H    4.097119   8.441195   8.847824   8.112979   9.219164
    25  C    2.586899   8.739365   9.295109   8.764208   9.430223
    26  H    2.321352   8.785490   9.431599   9.008235   9.498053
    27  H    2.994211   9.123805   9.529935   8.942026   9.595708
    28  H    3.541456   9.450006  10.053499   9.498054  10.265664
                   16         17         18         19         20
    16  H    0.000000
    17  C    2.628174   0.000000
    18  H    3.606919   1.070000   0.000000
    19  H    2.969085   1.070000   1.747303   0.000000
    20  H    2.400500   1.070000   1.747303   1.747303   0.000000
    21  C    8.877753   7.265856   7.129983   6.523298   8.211854
    22  H    7.972086   6.475912   6.454925   5.663905   7.387730
    23  H    9.113344   7.244100   6.972289   6.545452   8.169285
    24  H    9.703782   8.198240   8.115436   7.399160   9.115400
    25  C   10.283950   8.836007   8.634008   8.275706   9.870947
    26  H   10.444084   8.979478   8.708041   8.533714  10.037672
    27  H   10.532973   9.310747   9.216400   8.708052  10.335080
    28  H   11.008936   9.410334   9.151685   8.814453  10.424885
                   21         22         23         24         25
    21  C    0.000000
    22  H    1.070000   0.000000
    23  H    1.070000   1.747303   0.000000
    24  H    1.070000   1.747303   1.747303   0.000000
    25  C    2.546115   3.380076   3.033233   2.641228   0.000000
    26  H    3.380076   4.161652   3.713751   3.649332   1.070000
    27  H    3.033233   3.713751   3.752451   2.874664   1.070000
    28  H    2.641228   3.649332   2.874664   2.502565   1.070000
                   26         27         28
    26  H    0.000000
    27  H    1.747303   0.000000
    28  H    1.747303   1.747303   0.000000
 Stoichiometry    C9H17N2(1+)
 Framework group  C1[X(C9H17N2)]
 Deg. of freedom    78
 Full point group                 C1      NOp   1
 Largest Abelian subgroup         C1      NOp   1
 Largest concise Abelian subgroup C1      NOp   1
                         Standard orientation:                         
 ---------------------------------------------------------------------
 Center     Atomic      Atomic             Coordinates (Angstroms)
 Number     Number       Type             X           Y           Z
 ---------------------------------------------------------------------
      1          6           0        2.498441   -0.837950   -0.332747
      2          1           0        2.411729   -1.885869   -0.530853
      3          6           0        1.384328   -0.088758   -0.148272
      4          1           0        1.471039    0.959162    0.049834
      5          6           0       -0.006509   -0.745623   -0.223769
      6          1           0       -0.093221   -1.793542   -0.421878
      7          6           0       -1.120622    0.003569   -0.039298
      8          1           0       -1.033911    1.051489    0.158807
      9          7           0       -3.574931    0.061844    0.061282
     10          6           0       -2.511460   -0.653295   -0.114800
     11          1           0       -2.598171   -1.701214   -0.312909
     12          7           0        3.826058   -0.210941   -0.260685
     13          6           0        4.318145   -0.263176    1.123519
     14          1           0        3.640263    0.262458    1.763117
     15          1           0        4.387852   -1.283226    1.439019
     16          1           0        5.284506    0.193218    1.175973
     17          6           0        3.730292    1.190436   -0.694128
     18          1           0        3.372106    1.228457   -1.701678
     19          1           0        3.052410    1.716069   -0.054530
     20          1           0        4.696653    1.646830   -0.641674
     21          6           0       -3.455804    1.501508    0.333448
     22          1           0       -2.538654    1.692035    0.850589
     23          1           0       -3.462958    2.040969   -0.590582
     24          1           0       -4.279089    1.819441    0.938444
     25          6           0       -4.902549   -0.565163   -0.010791
     26          1           0       -4.868903   -1.395059   -0.685357
     27          1           0       -5.188611   -0.907447    0.961788
     28          1           0       -5.616493    0.150625   -0.361264
 ---------------------------------------------------------------------
 Rotational constants (GHZ):      3.5279904      0.3018070      0.2907009
 Leave Link  202 at Tue Jun  8 23:16:57 2021, MaxMem=    33554432 cpu:         0.0
 (Enter /opt/app/gaussian09/e01/g09/l301.exe)
 Standard basis: 6-31G(d,p) (6D, 7F)
 Ernie: Thresh=  0.10000D-02 Tol=  0.10000D-05 Strict=F.
 There are   250 symmetry adapted cartesian basis functions of A   symmetry.
 There are   250 symmetry adapted basis functions of A   symmetry.
   250 basis functions,   427 primitive gaussians,   250 cartesian basis functions
    42 alpha electrons       42 beta electrons
       nuclear repulsion energy       577.5030488208 Hartrees.
 IExCor=  402 DFT=T Ex+Corr=B3LYP ExCW=0 ScaHFX=  0.200000
 ScaDFX=  0.800000  0.720000  1.000000  0.810000 ScalE2=  1.000000  1.000000
 IRadAn=      0 IRanWt=     -1 IRanGd=            0 ICorTp=0 IEmpDi=  4
 NAtoms=   28 NActive=   28 NUniq=   28 SFac= 1.00D+00 NAtFMM=   60 NAOKFM=F Big=F
 Integral buffers will be    131072 words long.
 Raffenetti 2 integral format.
 Two-electron integral symmetry is turned on.
 Leave Link  301 at Tue Jun  8 23:16:57 2021, MaxMem=    33554432 cpu:         0.0
 (Enter /opt/app/gaussian09/e01/g09/l302.exe)
 NPDir=0 NMtPBC=     1 NCelOv=     1 NCel=       1 NClECP=     1 NCelD=      1
         NCelK=      1 NCelE2=     1 NClLst=     1 CellRange=     0.0.
 One-electron integrals computed using PRISM.
 NBasis=   250 RedAO= T EigKep=  1.99D-03  NBF=   250
 NBsUse=   250 1.00D-06 EigRej= -1.00D+00 NBFU=   250
 Precomputing XC quadrature grid using
 IXCGrd= 4 IRadAn=           0 IRanWt=          -1 IRanGd=           0 AccXCQ= 0.00D+00.
 Generated NRdTot=       0 NPtTot=           0 NUsed=           0 NTot=          32
 NSgBfM=   249   249   249   249   249 MxSgAt=    28 MxSgA2=    28.
 Leave Link  302 at Tue Jun  8 23:16:58 2021, MaxMem=    33554432 cpu:         0.7
 (Enter /opt/app/gaussian09/e01/g09/l303.exe)
 DipDrv:  MaxL=1.
 Leave Link  303 at Tue Jun  8 23:16:58 2021, MaxMem=    33554432 cpu:         0.0
 (Enter /opt/app/gaussian09/e01/g09/l401.exe)
 ExpMin= 1.61D-01 ExpMax= 4.17D+03 ExpMxC= 6.27D+02 IAcc=1 IRadAn=         1 AccDes= 0.00D+00
 Harris functional with IExCor=  402 and IRadAn=       1 diagonalized for initial guess.
 HarFok:  IExCor=  402 AccDes= 0.00D+00 IRadAn=         1 IDoV= 1 UseB2=F ITyADJ=14
 ICtDFT=  3500011 ScaDFX=  1.000000  1.000000  1.000000  1.000000
 FoFCou: FMM=F IPFlag=           0 FMFlag=      100000 FMFlg1=           0
         NFxFlg=           0 DoJE=T BraDBF=F KetDBF=T FulRan=T
         wScrn=  0.000000 ICntrl=     500 IOpCl=  0 I1Cent=   200000004 NGrid=           0
         NMat0=    1 NMatS0=      1 NMatT0=    0 NMatD0=    1 NMtDS0=    0 NMtDT0=    0
 Petite list used in FoFCou.
 Harris En= -462.461000894970    
 JPrj=0 DoOrth=F DoCkMO=F.
 Leave Link  401 at Tue Jun  8 23:17:01 2021, MaxMem=    33554432 cpu:         2.7
 (Enter /opt/app/gaussian09/e01/g09/l502.exe)
 Closed shell SCF:
 Using DIIS extrapolation, IDIIS=  1040.
 Integral symmetry usage will be decided dynamically.
 IVT=      209451 IEndB=      209451 NGot=    33554432 MDV=    33424372
 LenX=    33424372 LenY=    33361431
 Requested convergence on RMS density matrix=1.00D-08 within 128 cycles.
 Requested convergence on MAX density matrix=1.00D-06.
 Requested convergence on             energy=1.00D-06.
 No special actions if energy rises.
 Fock matrices will be formed incrementally for  20 cycles.
 Integral accuracy reduced to 1.0D-05 until final iterations.

 Cycle   1  Pass 0  IDiag  1:
 FoFJK:  IHMeth= 1 ICntrl=       0 DoSepK=F KAlg= 0 I1Cent=   0 FoldK=F
 IRaf= 740000000 NMat=   1 IRICut=       1 DoRegI=T DoRafI=F ISym2E= 0.
 FoFCou: FMM=F IPFlag=           0 FMFlag=      100000 FMFlg1=           0
         NFxFlg=           0 DoJE=F BraDBF=F KetDBF=F FulRan=T
         wScrn=  0.000000 ICntrl=       0 IOpCl=  0 I1Cent=           0 NGrid=           0
         NMat0=    1 NMatS0=      1 NMatT0=    0 NMatD0=    1 NMtDS0=    0 NMtDT0=    0
 Symmetry not used in FoFCou.
 E= -462.150854449694    
 DIIS: error= 2.23D-02 at cycle   1 NSaved=   1.
 NSaved= 1 IEnMin= 1 EnMin= -462.150854449694     IErMin= 1 ErrMin= 2.23D-02
 ErrMax= 2.23D-02  0.00D+00 EMaxC= 1.00D-01 BMatC= 2.46D-01 BMatP= 2.46D-01
 IDIUse=3 WtCom= 7.77D-01 WtEn= 2.23D-01
 Coeff-Com:  0.100D+01
 Coeff-En:   0.100D+01
 Coeff:      0.100D+01
 Gap=     0.053 Goal=   None    Shift=    0.000
 GapD=    0.053 DampG=0.500 DampE=0.500 DampFc=0.2500 IDamp=-1.
 Damping current iteration by 2.50D-01
 RMSDP=5.47D-03 MaxDP=1.71D-01              OVMax= 5.84D-01

 Cycle   2  Pass 0  IDiag  1:
 RMSU=  1.34D-03    CP:  9.86D-01
 E= -462.221474487626     Delta-E=       -0.070620037932 Rises=F Damp=T
 DIIS: error= 1.34D-02 at cycle   2 NSaved=   2.
 NSaved= 2 IEnMin= 2 EnMin= -462.221474487626     IErMin= 2 ErrMin= 1.34D-02
 ErrMax= 1.34D-02  0.00D+00 EMaxC= 1.00D-01 BMatC= 7.08D-02 BMatP= 2.46D-01
 IDIUse=3 WtCom= 8.66D-01 WtEn= 1.34D-01
 Coeff-Com: -0.531D+00 0.153D+01
 Coeff-En:   0.000D+00 0.100D+01
 Coeff:     -0.460D+00 0.146D+01
 Gap=     0.049 Goal=   None    Shift=    0.000
 RMSDP=2.17D-03 MaxDP=7.31D-02 DE=-7.06D-02 OVMax= 5.46D-01

 Cycle   3  Pass 0  IDiag  1:
 RMSU=  2.13D-03    CP:  9.70D-01  7.64D-01
 E= -462.268645454266     Delta-E=       -0.047170966640 Rises=F Damp=F
 DIIS: error= 1.54D-02 at cycle   3 NSaved=   3.
 NSaved= 3 IEnMin= 3 EnMin= -462.268645454266     IErMin= 2 ErrMin= 1.34D-02
 ErrMax= 1.54D-02  0.00D+00 EMaxC= 1.00D-01 BMatC= 1.29D-01 BMatP= 7.08D-02
 IDIUse=2 WtCom= 0.00D+00 WtEn= 1.00D+00
 Coeff-En:   0.000D+00 0.377D+00 0.623D+00
 Coeff:      0.000D+00 0.377D+00 0.623D+00
 Gap=     0.191 Goal=   None    Shift=    0.000
 RMSDP=5.45D-03 MaxDP=2.50D-01 DE=-4.72D-02 OVMax= 8.30D-01

 Cycle   4  Pass 0  IDiag  1:
 RMSU=  2.70D-03    CP:  9.45D-01  3.00D+00 -4.44D-01
 E= -461.024249786488     Delta-E=        1.244395667778 Rises=F Damp=F
 DIIS: error= 4.99D-02 at cycle   4 NSaved=   4.
 NSaved= 4 IEnMin= 3 EnMin= -462.268645454266     IErMin= 2 ErrMin= 1.34D-02
 ErrMax= 4.99D-02  0.00D+00 EMaxC= 1.00D-01 BMatC= 8.76D-01 BMatP= 7.08D-02
 IDIUse=2 WtCom= 0.00D+00 WtEn= 1.00D+00
 Coeff-En:   0.000D+00 0.000D+00 0.827D+00 0.173D+00
 Coeff:      0.000D+00 0.000D+00 0.827D+00 0.173D+00
 Gap=    -0.021 Goal=   None    Shift=    0.000
 RMSDP=4.51D-03 MaxDP=2.04D-01 DE= 1.24D+00 OVMax= 8.57D-01

 Cycle   5  Pass 0  IDiag  1:
 RMSU=  1.26D-03    CP:  9.77D-01  1.47D+00  1.45D-01 -1.74D-01
 E= -462.364856937167     Delta-E=       -1.340607150679 Rises=F Damp=F
 DIIS: error= 1.31D-02 at cycle   5 NSaved=   5.
 NSaved= 5 IEnMin= 5 EnMin= -462.364856937167     IErMin= 5 ErrMin= 1.31D-02
 ErrMax= 1.31D-02  0.00D+00 EMaxC= 1.00D-01 BMatC= 5.03D-02 BMatP= 7.08D-02
 IDIUse=3 WtCom= 8.69D-01 WtEn= 1.31D-01
 Coeff-Com: -0.221D+00 0.483D+00 0.373D+00 0.119D-01 0.353D+00
 Coeff-En:   0.000D+00 0.000D+00 0.292D+00 0.000D+00 0.708D+00
 Coeff:     -0.192D+00 0.420D+00 0.362D+00 0.103D-01 0.399D+00
 Gap=     0.109 Goal=   None    Shift=    0.000
 RMSDP=1.24D-03 MaxDP=6.14D-02 DE=-1.34D+00 OVMax= 1.39D-01

 Cycle   6  Pass 0  IDiag  1:
 RMSU=  6.07D-04    CP:  9.74D-01  1.07D+00  5.05D-01 -1.25D-01  5.83D-01
 E= -462.409565645549     Delta-E=       -0.044708708382 Rises=F Damp=F
 DIIS: error= 5.96D-03 at cycle   6 NSaved=   6.
 NSaved= 6 IEnMin= 6 EnMin= -462.409565645549     IErMin= 6 ErrMin= 5.96D-03
 ErrMax= 5.96D-03  0.00D+00 EMaxC= 1.00D-01 BMatC= 6.85D-03 BMatP= 5.03D-02
 IDIUse=3 WtCom= 9.40D-01 WtEn= 5.96D-02
 Coeff-Com: -0.146D+00 0.236D+00 0.118D+00-0.151D-01 0.272D+00 0.535D+00
 Coeff-En:   0.000D+00 0.000D+00 0.000D+00 0.000D+00 0.144D+00 0.856D+00
 Coeff:     -0.138D+00 0.222D+00 0.111D+00-0.142D-01 0.265D+00 0.554D+00
 Gap=     0.103 Goal=   None    Shift=    0.000
 RMSDP=4.35D-04 MaxDP=2.50D-02 DE=-4.47D-02 OVMax= 5.78D-02

 Cycle   7  Pass 0  IDiag  1:
 RMSU=  2.11D-04    CP:  9.75D-01  1.22D+00  4.32D-01 -1.54D-01  7.17D-01
                    CP:  6.55D-01
 E= -462.417249712325     Delta-E=       -0.007684066776 Rises=F Damp=F
 DIIS: error= 1.08D-03 at cycle   7 NSaved=   7.
 NSaved= 7 IEnMin= 7 EnMin= -462.417249712325     IErMin= 7 ErrMin= 1.08D-03
 ErrMax= 1.08D-03  0.00D+00 EMaxC= 1.00D-01 BMatC= 5.23D-04 BMatP= 6.85D-03
 IDIUse=3 WtCom= 9.89D-01 WtEn= 1.08D-02
 Coeff-Com: -0.312D-01 0.401D-01-0.111D-01-0.225D-02 0.402D-01 0.284D+00
 Coeff-Com:  0.680D+00
 Coeff-En:   0.000D+00 0.000D+00 0.000D+00 0.000D+00 0.000D+00 0.000D+00
 Coeff-En:   0.100D+01
 Coeff:     -0.309D-01 0.397D-01-0.110D-01-0.222D-02 0.397D-01 0.281D+00
 Coeff:      0.684D+00
 Gap=     0.103 Goal=   None    Shift=    0.000
 RMSDP=9.30D-05 MaxDP=5.35D-03 DE=-7.68D-03 OVMax= 7.04D-03

 Cycle   8  Pass 0  IDiag  1:
 RMSU=  6.32D-05    CP:  9.74D-01  1.21D+00  4.30D-01 -1.55D-01  7.21D-01
                    CP:  7.52D-01  8.53D-01
 E= -462.417671767470     Delta-E=       -0.000422055145 Rises=F Damp=F
 DIIS: error= 2.95D-04 at cycle   8 NSaved=   8.
 NSaved= 8 IEnMin= 8 EnMin= -462.417671767470     IErMin= 8 ErrMin= 2.95D-04
 ErrMax= 2.95D-04  0.00D+00 EMaxC= 1.00D-01 BMatC= 6.74D-05 BMatP= 5.23D-04
 IDIUse=3 WtCom= 9.97D-01 WtEn= 2.95D-03
 Coeff-Com: -0.113D-01 0.148D-01-0.188D-01-0.234D-03-0.907D-02 0.123D+00
 Coeff-Com:  0.407D+00 0.494D+00
 Coeff-En:   0.000D+00 0.000D+00 0.000D+00 0.000D+00 0.000D+00 0.000D+00
 Coeff-En:   0.000D+00 0.100D+01
 Coeff:     -0.113D-01 0.148D-01-0.187D-01-0.234D-03-0.904D-02 0.123D+00
 Coeff:      0.406D+00 0.496D+00
 Gap=     0.104 Goal=   None    Shift=    0.000
 RMSDP=3.64D-05 MaxDP=1.94D-03 DE=-4.22D-04 OVMax= 3.40D-03

 Cycle   9  Pass 0  IDiag  1:
 RMSU=  1.99D-05    CP:  9.75D-01  1.20D+00  4.34D-01 -1.54D-01  7.15D-01
                    CP:  7.67D-01  9.00D-01  6.39D-01
 E= -462.417734156031     Delta-E=       -0.000062388561 Rises=F Damp=F
 DIIS: error= 1.10D-04 at cycle   9 NSaved=   9.
 NSaved= 9 IEnMin= 9 EnMin= -462.417734156031     IErMin= 9 ErrMin= 1.10D-04
 ErrMax= 1.10D-04  0.00D+00 EMaxC= 1.00D-01 BMatC= 4.95D-06 BMatP= 6.74D-05
 IDIUse=3 WtCom= 9.99D-01 WtEn= 1.10D-03
 Coeff-Com: -0.480D-02 0.696D-02-0.966D-02 0.105D-03-0.880D-02 0.419D-01
 Coeff-Com:  0.140D+00 0.255D+00 0.580D+00
 Coeff-En:   0.000D+00 0.000D+00 0.000D+00 0.000D+00 0.000D+00 0.000D+00
 Coeff-En:   0.000D+00 0.000D+00 0.100D+01
 Coeff:     -0.480D-02 0.695D-02-0.965D-02 0.105D-03-0.879D-02 0.418D-01
 Coeff:      0.140D+00 0.255D+00 0.580D+00
 Gap=     0.104 Goal=   None    Shift=    0.000
 RMSDP=9.85D-06 MaxDP=3.73D-04 DE=-6.24D-05 OVMax= 9.53D-04

 Initial convergence to 1.0D-05 achieved.  Increase integral accuracy.
 Cycle  10  Pass 1  IDiag  1:
 E= -462.417764734312     Delta-E=       -0.000030578281 Rises=F Damp=F
 DIIS: error= 4.64D-05 at cycle   1 NSaved=   1.
 NSaved= 1 IEnMin= 1 EnMin= -462.417764734312     IErMin= 1 ErrMin= 4.64D-05
 ErrMax= 4.64D-05  0.00D+00 EMaxC= 1.00D-01 BMatC= 8.91D-07 BMatP= 8.91D-07
 IDIUse=1 WtCom= 1.00D+00 WtEn= 0.00D+00
 Coeff-Com:  0.100D+01
 Coeff:      0.100D+01
 Gap=     0.103 Goal=   None    Shift=    0.000
 RMSDP=9.85D-06 MaxDP=3.73D-04 DE=-3.06D-05 OVMax= 1.24D-03

 Cycle  11  Pass 1  IDiag  1:
 RMSU=  1.14D-05    CP:  1.00D+00
 E= -462.417763195313     Delta-E=        0.000001538998 Rises=F Damp=F
 DIIS: error= 9.86D-05 at cycle   2 NSaved=   2.
 NSaved= 2 IEnMin= 1 EnMin= -462.417764734312     IErMin= 1 ErrMin= 4.64D-05
 ErrMax= 9.86D-05  0.00D+00 EMaxC= 1.00D-01 BMatC= 2.64D-06 BMatP= 8.91D-07
 IDIUse=1 WtCom= 1.00D+00 WtEn= 0.00D+00
 Coeff-Com:  0.639D+00 0.361D+00
 Coeff:      0.639D+00 0.361D+00
 Gap=     0.104 Goal=   None    Shift=    0.000
 RMSDP=7.22D-06 MaxDP=3.17D-04 DE= 1.54D-06 OVMax= 9.46D-04

 Cycle  12  Pass 1  IDiag  1:
 RMSU=  3.79D-06    CP:  1.00D+00  4.63D-01
 E= -462.417765620708     Delta-E=       -0.000002425395 Rises=F Damp=F
 DIIS: error= 1.18D-05 at cycle   3 NSaved=   3.
 NSaved= 3 IEnMin= 3 EnMin= -462.417765620708     IErMin= 3 ErrMin= 1.18D-05
 ErrMax= 1.18D-05  0.00D+00 EMaxC= 1.00D-01 BMatC= 3.50D-08 BMatP= 8.91D-07
 IDIUse=1 WtCom= 1.00D+00 WtEn= 0.00D+00
 Coeff-Com:  0.202D+00 0.147D+00 0.650D+00
 Coeff:      0.202D+00 0.147D+00 0.650D+00
 Gap=     0.104 Goal=   None    Shift=    0.000
 RMSDP=1.22D-06 MaxDP=5.51D-05 DE=-2.43D-06 OVMax= 1.50D-04

 Cycle  13  Pass 1  IDiag  1:
 RMSU=  1.04D-06    CP:  1.00D+00  5.05D-01  8.90D-01
 E= -462.417765640192     Delta-E=       -0.000000019484 Rises=F Damp=F
 DIIS: error= 8.29D-06 at cycle   4 NSaved=   4.
 NSaved= 4 IEnMin= 4 EnMin= -462.417765640192     IErMin= 4 ErrMin= 8.29D-06
 ErrMax= 8.29D-06  0.00D+00 EMaxC= 1.00D-01 BMatC= 1.79D-08 BMatP= 3.50D-08
 IDIUse=1 WtCom= 1.00D+00 WtEn= 0.00D+00
 Coeff-Com:  0.491D-02 0.250D-01 0.441D+00 0.529D+00
 Coeff:      0.491D-02 0.250D-01 0.441D+00 0.529D+00
 Gap=     0.104 Goal=   None    Shift=    0.000
 RMSDP=6.38D-07 MaxDP=2.72D-05 DE=-1.95D-08 OVMax= 7.45D-05

 Cycle  14  Pass 1  IDiag  1:
 RMSU=  3.39D-07    CP:  1.00D+00  4.92D-01  9.72D-01  5.99D-01
 E= -462.417765657945     Delta-E=       -0.000000017753 Rises=F Damp=F
 DIIS: error= 1.31D-06 at cycle   5 NSaved=   5.
 NSaved= 5 IEnMin= 5 EnMin= -462.417765657945     IErMin= 5 ErrMin= 1.31D-06
 ErrMax= 1.31D-06  0.00D+00 EMaxC= 1.00D-01 BMatC= 9.23D-10 BMatP= 1.79D-08
 IDIUse=1 WtCom= 1.00D+00 WtEn= 0.00D+00
 Coeff-Com: -0.940D-02 0.583D-02 0.194D+00 0.282D+00 0.527D+00
 Coeff:     -0.940D-02 0.583D-02 0.194D+00 0.282D+00 0.527D+00
 Gap=     0.104 Goal=   None    Shift=    0.000
 RMSDP=1.73D-07 MaxDP=7.41D-06 DE=-1.78D-08 OVMax= 2.31D-05

 Cycle  15  Pass 1  IDiag  1:
 RMSU=  1.13D-07    CP:  1.00D+00  4.94D-01  9.72D-01  6.13D-01  6.24D-01
 E= -462.417765658965     Delta-E=       -0.000000001020 Rises=F Damp=F
 DIIS: error= 3.56D-07 at cycle   6 NSaved=   6.
 NSaved= 6 IEnMin= 6 EnMin= -462.417765658965     IErMin= 6 ErrMin= 3.56D-07
 ErrMax= 3.56D-07  0.00D+00 EMaxC= 1.00D-01 BMatC= 9.09D-11 BMatP= 9.23D-10
 IDIUse=1 WtCom= 1.00D+00 WtEn= 0.00D+00
 Coeff-Com: -0.548D-02 0.141D-02 0.545D-01 0.837D-01 0.277D+00 0.589D+00
 Coeff:     -0.548D-02 0.141D-02 0.545D-01 0.837D-01 0.277D+00 0.589D+00
 Gap=     0.104 Goal=   None    Shift=    0.000
 RMSDP=5.24D-08 MaxDP=1.57D-06 DE=-1.02D-09 OVMax= 3.93D-06

 Cycle  16  Pass 1  IDiag  1:
 RMSU=  3.68D-08    CP:  1.00D+00  4.95D-01  9.73D-01  6.16D-01  7.01D-01
                    CP:  7.94D-01
 E= -462.417765659051     Delta-E=       -0.000000000086 Rises=F Damp=F
 DIIS: error= 1.42D-07 at cycle   7 NSaved=   7.
 NSaved= 7 IEnMin= 7 EnMin= -462.417765659051     IErMin= 7 ErrMin= 1.42D-07
 ErrMax= 1.42D-07  0.00D+00 EMaxC= 1.00D-01 BMatC= 1.58D-11 BMatP= 9.09D-11
 IDIUse=1 WtCom= 1.00D+00 WtEn= 0.00D+00
 Coeff-Com: -0.214D-02 0.323D-03 0.822D-02 0.122D-01 0.115D+00 0.358D+00
 Coeff-Com:  0.509D+00
 Coeff:     -0.214D-02 0.323D-03 0.822D-02 0.122D-01 0.115D+00 0.358D+00
 Coeff:      0.509D+00
 Gap=     0.104 Goal=   None    Shift=    0.000
 RMSDP=1.84D-08 MaxDP=7.78D-07 DE=-8.59D-11 OVMax= 1.93D-06

 Cycle  17  Pass 1  IDiag  1:
 RMSU=  1.17D-08    CP:  1.00D+00  4.96D-01  9.73D-01  6.16D-01  7.03D-01
                    CP:  8.46D-01  6.62D-01
 E= -462.417765659072     Delta-E=       -0.000000000021 Rises=F Damp=F
 DIIS: error= 7.68D-08 at cycle   8 NSaved=   8.
 NSaved= 8 IEnMin= 8 EnMin= -462.417765659072     IErMin= 8 ErrMin= 7.68D-08
 ErrMax= 7.68D-08  0.00D+00 EMaxC= 1.00D-01 BMatC= 1.76D-12 BMatP= 1.58D-11
 IDIUse=1 WtCom= 1.00D+00 WtEn= 0.00D+00
 Coeff-Com: -0.356D-03-0.575D-04-0.389D-02-0.876D-02 0.228D-01 0.932D-01
 Coeff-Com:  0.265D+00 0.632D+00
 Coeff:     -0.356D-03-0.575D-04-0.389D-02-0.876D-02 0.228D-01 0.932D-01
 Coeff:      0.265D+00 0.632D+00
 Gap=     0.104 Goal=   None    Shift=    0.000
 RMSDP=5.79D-09 MaxDP=3.20D-07 DE=-2.11D-11 OVMax= 4.91D-07

 SCF Done:  E(RB3LYP) =  -462.417765659     A.U. after   17 cycles
            NFock= 17  Conv=0.58D-08     -V/T= 2.0095
 KE= 4.580649248586D+02 PE=-2.212563469052D+03 EE= 7.145777297131D+02
 Leave Link  502 at Tue Jun  8 23:19:57 2021, MaxMem=    33554432 cpu:       174.8
 (Enter /opt/app/gaussian09/e01/g09/l601.exe)
 Copying SCF densities to generalized density rwf, IOpCl= 0 IROHF=0.

 **********************************************************************

            Population analysis using the SCF density.

 **********************************************************************

 Orbital symmetries:
       Occupied  (A) (A) (A) (A) (A) (A) (A) (A) (A) (A) (A) (A)
                 (A) (A) (A) (A) (A) (A) (A) (A) (A) (A) (A) (A)
                 (A) (A) (A) (A) (A) (A) (A) (A) (A) (A) (A) (A)
                 (A) (A) (A) (A) (A) (A)
       Virtual   (A) (A) (A) (A) (A) (A) (A) (A) (A) (A) (A) (A)
                 (A) (A) (A) (A) (A) (A) (A) (A) (A) (A) (A) (A)
                 (A) (A) (A) (A) (A) (A) (A) (A) (A) (A) (A) (A)
                 (A) (A) (A) (A) (A) (A) (A) (A) (A) (A) (A) (A)
                 (A) (A) (A) (A) (A) (A) (A) (A) (A) (A) (A) (A)
                 (A) (A) (A) (A) (A) (A) (A) (A) (A) (A) (A) (A)
                 (A) (A) (A) (A) (A) (A) (A) (A) (A) (A) (A) (A)
                 (A) (A) (A) (A) (A) (A) (A) (A) (A) (A) (A) (A)
                 (A) (A) (A) (A) (A) (A) (A) (A) (A) (A) (A) (A)
                 (A) (A) (A) (A) (A) (A) (A) (A) (A) (A) (A) (A)
                 (A) (A) (A) (A) (A) (A) (A) (A) (A) (A) (A) (A)
                 (A) (A) (A) (A) (A) (A) (A) (A) (A) (A) (A) (A)
                 (A) (A) (A) (A) (A) (A) (A) (A) (A) (A) (A) (A)
                 (A) (A) (A) (A) (A) (A) (A) (A) (A) (A) (A) (A)
                 (A) (A) (A) (A) (A) (A) (A) (A) (A) (A) (A) (A)
                 (A) (A) (A) (A) (A) (A) (A) (A) (A) (A) (A) (A)
                 (A) (A) (A) (A) (A) (A) (A) (A) (A) (A) (A) (A)
                 (A) (A) (A) (A)
 The electronic state is 1-A.
 Alpha  occ. eigenvalues --  -14.58601 -14.45573 -10.43822 -10.37980 -10.37968
 Alpha  occ. eigenvalues --  -10.37324 -10.35926 -10.35677 -10.33005 -10.30197
 Alpha  occ. eigenvalues --  -10.30028  -1.16452  -1.04193  -0.96049  -0.91240
 Alpha  occ. eigenvalues --   -0.91053  -0.86893  -0.81698  -0.78321  -0.75043
 Alpha  occ. eigenvalues --   -0.73125  -0.68989  -0.68249  -0.65962  -0.65131
 Alpha  occ. eigenvalues --   -0.61320  -0.59550  -0.58347  -0.58045  -0.57108
 Alpha  occ. eigenvalues --   -0.56283  -0.55711  -0.54677  -0.52916  -0.51723
 Alpha  occ. eigenvalues --   -0.50827  -0.49599  -0.47672  -0.47296  -0.45453
 Alpha  occ. eigenvalues --   -0.38492  -0.33490
 Alpha virt. eigenvalues --   -0.23127  -0.13443  -0.07674  -0.06297  -0.04981
 Alpha virt. eigenvalues --   -0.04328  -0.01243  -0.00899  -0.00478   0.00469
 Alpha virt. eigenvalues --    0.01080   0.01492   0.02216   0.02593   0.04235
 Alpha virt. eigenvalues --    0.04769   0.05553   0.06482   0.06898   0.07875
 Alpha virt. eigenvalues --    0.09440   0.10230   0.11431   0.12129   0.14213
 Alpha virt. eigenvalues --    0.16440   0.18781   0.21272   0.24046   0.27340
 Alpha virt. eigenvalues --    0.32138   0.33193   0.33558   0.37577   0.38661
 Alpha virt. eigenvalues --    0.39180   0.40095   0.40918   0.41690   0.42560
 Alpha virt. eigenvalues --    0.44319   0.45282   0.45952   0.47473   0.48269
 Alpha virt. eigenvalues --    0.48562   0.50494   0.52437   0.54851   0.57239
 Alpha virt. eigenvalues --    0.57886   0.59736   0.64164   0.64970   0.66058
 Alpha virt. eigenvalues --    0.66516   0.67918   0.68484   0.69587   0.70080
 Alpha virt. eigenvalues --    0.70871   0.72600   0.72983   0.74092   0.74459
 Alpha virt. eigenvalues --    0.75451   0.77368   0.78249   0.78728   0.79489
 Alpha virt. eigenvalues --    0.80109   0.81763   0.82467   0.83141   0.85954
 Alpha virt. eigenvalues --    0.87319   0.88584   0.89578   0.90306   0.95610
 Alpha virt. eigenvalues --    0.98570   1.01184   1.08017   1.09089   1.11601
 Alpha virt. eigenvalues --    1.14402   1.14636   1.15992   1.17445   1.18234
 Alpha virt. eigenvalues --    1.18661   1.20237   1.24650   1.26209   1.29633
 Alpha virt. eigenvalues --    1.32231   1.35811   1.41713   1.43293   1.44465
 Alpha virt. eigenvalues --    1.51363   1.54700   1.56448   1.60934   1.63330
 Alpha virt. eigenvalues --    1.63636   1.65925   1.69029   1.72016   1.73744
 Alpha virt. eigenvalues --    1.75355   1.76603   1.78029   1.79971   1.82286
 Alpha virt. eigenvalues --    1.83093   1.84858   1.85750   1.87093   1.87481
 Alpha virt. eigenvalues --    1.89153   1.90999   1.91912   1.92357   1.94403
 Alpha virt. eigenvalues --    1.94974   1.95596   1.96512   1.97520   1.99766
 Alpha virt. eigenvalues --    2.00784   2.01803   2.03017   2.03917   2.05051
 Alpha virt. eigenvalues --    2.06934   2.08352   2.12525   2.14201   2.16637
 Alpha virt. eigenvalues --    2.18093   2.19380   2.26545   2.27755   2.29921
 Alpha virt. eigenvalues --    2.31285   2.32936   2.34841   2.35582   2.37746
 Alpha virt. eigenvalues --    2.41634   2.42193   2.43594   2.45059   2.45375
 Alpha virt. eigenvalues --    2.47774   2.48631   2.49808   2.51309   2.52919
 Alpha virt. eigenvalues --    2.55506   2.56955   2.58765   2.61881   2.62255
 Alpha virt. eigenvalues --    2.63269   2.64796   2.69113   2.69873   2.71859
 Alpha virt. eigenvalues --    2.74790   2.78912   2.79557   2.81696   2.82602
 Alpha virt. eigenvalues --    2.86774   2.88571   2.91294   2.93388   2.94295
 Alpha virt. eigenvalues --    3.08590   3.11412   3.15191   3.19654   3.23289
 Alpha virt. eigenvalues --    3.27324   3.29765   3.30585   3.31863   3.32740
 Alpha virt. eigenvalues --    3.34112   3.35070   3.38220   3.41144   3.41982
 Alpha virt. eigenvalues --    3.45195   3.46466   3.84900   3.96124   3.99479
 Alpha virt. eigenvalues --    4.03080   4.15327   4.27184   4.30805   4.37944
 Alpha virt. eigenvalues --    4.40249   4.42347   4.50411
          Condensed to atoms (all electrons):
               1          2          3          4          5          6
     1  C    4.834902   0.398758   0.532906  -0.048160  -0.012636  -0.002968
     2  H    0.398758   0.563857  -0.067847   0.004584  -0.004461   0.003671
     3  C    0.532906  -0.067847   4.950462   0.389535   0.395843  -0.035989
     4  H   -0.048160   0.004584   0.389535   0.586188  -0.041977   0.003200
     5  C   -0.012636  -0.004461   0.395843  -0.041977   4.810780   0.386715
     6  H   -0.002968   0.003671  -0.035989   0.003200   0.386715   0.566649
     7  C    0.001643   0.000259  -0.022969  -0.004233   0.549364  -0.055482
     8  H    0.000323   0.000009  -0.007889   0.003490  -0.033198   0.004930
     9  N    0.000001   0.000000  -0.000082  -0.000000   0.001782   0.000187
    10  C   -0.000159   0.000005   0.002494   0.000167  -0.019175  -0.006220
    11  H    0.000001   0.000001   0.000049   0.000003  -0.002354   0.003077
    12  N    0.339518  -0.039756  -0.049067  -0.012151   0.003480   0.000029
    13  C   -0.050544   0.001196  -0.006105   0.000042  -0.000109   0.000004
    14  H   -0.008877  -0.000899   0.008456   0.001423  -0.000278  -0.000008
    15  H   -0.000463   0.002040  -0.000754  -0.000001   0.000022   0.000002
    16  H    0.005208  -0.000060  -0.000047  -0.000080   0.000006   0.000000
    17  C   -0.057536   0.004143  -0.007948   0.000762   0.000887   0.000010
    18  H   -0.001703   0.000391  -0.000064  -0.000045  -0.000005   0.000001
    19  H   -0.016534  -0.000699  -0.001310   0.005026  -0.000029  -0.000016
    20  H    0.005985  -0.000108   0.000374  -0.000177  -0.000014   0.000000
    21  C   -0.000000  -0.000000  -0.000013  -0.000003   0.001184   0.000003
    22  H    0.000000   0.000000  -0.000027  -0.000011   0.001296   0.000002
    23  H   -0.000000  -0.000000  -0.000003  -0.000000  -0.000032  -0.000001
    24  H    0.000000   0.000000   0.000000   0.000000  -0.000031   0.000001
    25  C   -0.000000   0.000000   0.000001  -0.000000  -0.000063  -0.000007
    26  H   -0.000000  -0.000000   0.000000   0.000000  -0.000004   0.000001
    27  H   -0.000000   0.000000  -0.000000  -0.000000   0.000006   0.000000
    28  H   -0.000000  -0.000000  -0.000000   0.000000   0.000002   0.000000
               7          8          9         10         11         12
     1  C    0.001643   0.000323   0.000001  -0.000159   0.000001   0.339518
     2  H    0.000259   0.000009   0.000000   0.000005   0.000001  -0.039756
     3  C   -0.022969  -0.007889  -0.000082   0.002494   0.000049  -0.049067
     4  H   -0.004233   0.003490  -0.000000   0.000167   0.000003  -0.012151
     5  C    0.549364  -0.033198   0.001782  -0.019175  -0.002354   0.003480
     6  H   -0.055482   0.004930   0.000187  -0.006220   0.003077   0.000029
     7  C    4.932466   0.388265  -0.036887   0.415841  -0.032194  -0.000125
     8  H    0.388265   0.563224  -0.004605  -0.043950   0.002720  -0.000005
     9  N   -0.036887  -0.004605   6.653282   0.433755  -0.040596  -0.000000
    10  C    0.415841  -0.043950   0.433755   4.757541   0.383217   0.000000
    11  H   -0.032194   0.002720  -0.040596   0.383217   0.504624  -0.000000
    12  N   -0.000125  -0.000005  -0.000000   0.000000  -0.000000   6.801810
    13  C    0.000007  -0.000000  -0.000000   0.000000  -0.000000   0.303865
    14  H   -0.000002   0.000002   0.000000  -0.000000   0.000000  -0.054042
    15  H    0.000000   0.000000   0.000000   0.000000  -0.000000  -0.035877
    16  H   -0.000000  -0.000000  -0.000000   0.000000  -0.000000  -0.034588
    17  C   -0.000026  -0.000010   0.000000  -0.000000  -0.000000   0.308147
    18  H   -0.000006  -0.000002   0.000000  -0.000000  -0.000000  -0.035014
    19  H    0.000036   0.000004  -0.000000  -0.000000   0.000000  -0.049706
    20  H   -0.000000  -0.000000   0.000000   0.000000   0.000000  -0.033966
    21  C   -0.006601  -0.001870   0.273412  -0.056318   0.003701  -0.000000
    22  H    0.004116  -0.001577  -0.027210  -0.011974  -0.000081   0.000000
    23  H    0.000555   0.000295  -0.035107  -0.001542  -0.000122  -0.000000
    24  H    0.000273   0.000267  -0.032538   0.004231  -0.000138  -0.000000
    25  C    0.003662  -0.000110   0.266237  -0.042816  -0.004770   0.000000
    26  H    0.000262   0.000004  -0.032162  -0.002669   0.003242  -0.000000
    27  H   -0.000088  -0.000002  -0.035954  -0.002715   0.000473   0.000000
    28  H   -0.000177   0.000005  -0.030385   0.002456   0.000107  -0.000000
              13         14         15         16         17         18
     1  C   -0.050544  -0.008877  -0.000463   0.005208  -0.057536  -0.001703
     2  H    0.001196  -0.000899   0.002040  -0.000060   0.004143   0.000391
     3  C   -0.006105   0.008456  -0.000754  -0.000047  -0.007948  -0.000064
     4  H    0.000042   0.001423  -0.000001  -0.000080   0.000762  -0.000045
     5  C   -0.000109  -0.000278   0.000022   0.000006   0.000887  -0.000005
     6  H    0.000004  -0.000008   0.000002   0.000000   0.000010   0.000001
     7  C    0.000007  -0.000002   0.000000  -0.000000  -0.000026  -0.000006
     8  H   -0.000000   0.000002   0.000000  -0.000000  -0.000010  -0.000002
     9  N   -0.000000   0.000000   0.000000  -0.000000   0.000000   0.000000
    10  C    0.000000  -0.000000   0.000000   0.000000  -0.000000  -0.000000
    11  H   -0.000000   0.000000  -0.000000  -0.000000  -0.000000  -0.000000
    12  N    0.303865  -0.054042  -0.035877  -0.034588   0.308147  -0.035014
    13  C    4.824316   0.375801   0.392177   0.396292  -0.057077   0.005509
    14  H    0.375801   0.648454  -0.038849  -0.039784  -0.009384  -0.000249
    15  H    0.392177  -0.038849   0.563392  -0.022379   0.005836  -0.000270
    16  H    0.396292  -0.039784  -0.022379   0.550595  -0.002463   0.000114
    17  C   -0.057077  -0.009384   0.005836  -0.002463   4.837798   0.397327
    18  H    0.005509  -0.000249  -0.000270   0.000114   0.397327   0.561922
    19  H   -0.006632   0.015010  -0.000357  -0.001755   0.364594  -0.043152
    20  H   -0.003136  -0.001431   0.000114   0.003917   0.396754  -0.022836
    21  C   -0.000000   0.000000  -0.000000   0.000000  -0.000000  -0.000000
    22  H    0.000000  -0.000000   0.000000  -0.000000   0.000000   0.000000
    23  H   -0.000000   0.000000  -0.000000   0.000000  -0.000000  -0.000000
    24  H    0.000000  -0.000000  -0.000000  -0.000000  -0.000000   0.000000
    25  C    0.000000  -0.000000   0.000000   0.000000   0.000000   0.000000
    26  H   -0.000000   0.000000  -0.000000   0.000000  -0.000000  -0.000000
    27  H    0.000000  -0.000000   0.000000  -0.000000   0.000000   0.000000
    28  H   -0.000000   0.000000  -0.000000   0.000000  -0.000000  -0.000000
              19         20         21         22         23         24
     1  C   -0.016534   0.005985  -0.000000   0.000000  -0.000000   0.000000
     2  H   -0.000699  -0.000108  -0.000000   0.000000  -0.000000   0.000000
     3  C   -0.001310   0.000374  -0.000013  -0.000027  -0.000003   0.000000
     4  H    0.005026  -0.000177  -0.000003  -0.000011  -0.000000   0.000000
     5  C   -0.000029  -0.000014   0.001184   0.001296  -0.000032  -0.000031
     6  H   -0.000016   0.000000   0.000003   0.000002  -0.000001   0.000001
     7  C    0.000036  -0.000000  -0.006601   0.004116   0.000555   0.000273
     8  H    0.000004  -0.000000  -0.001870  -0.001577   0.000295   0.000267
     9  N   -0.000000   0.000000   0.273412  -0.027210  -0.035107  -0.032538
    10  C   -0.000000   0.000000  -0.056318  -0.011974  -0.001542   0.004231
    11  H    0.000000   0.000000   0.003701  -0.000081  -0.000122  -0.000138
    12  N   -0.049706  -0.033966  -0.000000   0.000000  -0.000000  -0.000000
    13  C   -0.006632  -0.003136  -0.000000   0.000000  -0.000000   0.000000
    14  H    0.015010  -0.001431   0.000000  -0.000000   0.000000  -0.000000
    15  H   -0.000357   0.000114  -0.000000   0.000000  -0.000000  -0.000000
    16  H   -0.001755   0.003917   0.000000  -0.000000   0.000000  -0.000000
    17  C    0.364594   0.396754  -0.000000   0.000000  -0.000000  -0.000000
    18  H   -0.043152  -0.022836  -0.000000   0.000000  -0.000000   0.000000
    19  H    0.673445  -0.036316   0.000000  -0.000001   0.000000  -0.000000
    20  H   -0.036316   0.548742  -0.000000   0.000000  -0.000000   0.000000
    21  C    0.000000  -0.000000   4.841484   0.390742   0.395818   0.392156
    22  H   -0.000001   0.000000   0.390742   0.524635  -0.030655  -0.022038
    23  H    0.000000  -0.000000   0.395818  -0.030655   0.507633  -0.026614
    24  H   -0.000000   0.000000   0.392156  -0.022038  -0.026614   0.510420
    25  C   -0.000000   0.000000  -0.034988   0.003264  -0.000111  -0.001646
    26  H    0.000000  -0.000000   0.003087  -0.000186  -0.000096   0.000058
    27  H   -0.000000   0.000000   0.000327   0.000001  -0.000247   0.001394
    28  H    0.000000  -0.000000  -0.001400  -0.000003   0.001564  -0.000310
              25         26         27         28
     1  C   -0.000000  -0.000000  -0.000000  -0.000000
     2  H    0.000000  -0.000000   0.000000  -0.000000
     3  C    0.000001   0.000000  -0.000000  -0.000000
     4  H   -0.000000   0.000000  -0.000000   0.000000
     5  C   -0.000063  -0.000004   0.000006   0.000002
     6  H   -0.000007   0.000001   0.000000   0.000000
     7  C    0.003662   0.000262  -0.000088  -0.000177
     8  H   -0.000110   0.000004  -0.000002   0.000005
     9  N    0.266237  -0.032162  -0.035954  -0.030385
    10  C   -0.042816  -0.002669  -0.002715   0.002456
    11  H   -0.004770   0.003242   0.000473   0.000107
    12  N    0.000000  -0.000000   0.000000  -0.000000
    13  C    0.000000  -0.000000   0.000000  -0.000000
    14  H   -0.000000   0.000000  -0.000000   0.000000
    15  H    0.000000  -0.000000   0.000000  -0.000000
    16  H    0.000000   0.000000  -0.000000   0.000000
    17  C    0.000000  -0.000000   0.000000  -0.000000
    18  H    0.000000  -0.000000   0.000000  -0.000000
    19  H   -0.000000   0.000000  -0.000000   0.000000
    20  H    0.000000  -0.000000   0.000000  -0.000000
    21  C   -0.034988   0.003087   0.000327  -0.001400
    22  H    0.003264  -0.000186   0.000001  -0.000003
    23  H   -0.000111  -0.000096  -0.000247   0.001564
    24  H   -0.001646   0.000058   0.001394  -0.000310
    25  C    4.839987   0.395027   0.393192   0.393585
    26  H    0.395027   0.511189  -0.026971  -0.022337
    27  H    0.393192  -0.026971   0.509806  -0.027633
    28  H    0.393585  -0.022337  -0.027633   0.508198
 Mulliken charges:
               1
     1  C    0.080336
     2  H    0.134917
     3  C   -0.080004
     4  H    0.112420
     5  C   -0.037000
     6  H    0.132208
     7  C   -0.137960
     8  H    0.129680
     9  N   -0.353129
    10  C    0.187831
    11  H    0.179040
    12  N   -0.412551
    13  C   -0.175604
    14  H    0.104655
    15  H    0.135365
    16  H    0.145025
    17  C   -0.181814
    18  H    0.138081
    19  H    0.098393
    20  H    0.142098
    21  C   -0.200721
    22  H    0.169706
    23  H    0.188664
    24  H    0.174516
    25  C   -0.210444
    26  H    0.171554
    27  H    0.188411
    28  H    0.176328
 Sum of Mulliken charges =   1.00000
 Mulliken charges with hydrogens summed into heavy atoms:
               1
     1  C    0.215252
     3  C    0.032416
     5  C    0.095208
     7  C   -0.008280
     9  N   -0.353129
    10  C    0.366871
    12  N   -0.412551
    13  C    0.209441
    17  C    0.196759
    21  C    0.332165
    25  C    0.325849
 Electronic spatial extent (au):  <R**2>=           3771.9928
 Charge=              1.0000 electrons
 Dipole moment (field-independent basis, Debye):
    X=             -8.5246    Y=             -0.0069    Z=              0.5883  Tot=              8.5449
 Quadrupole moment (field-independent basis, Debye-Ang):
   XX=             -1.4210   YY=            -54.4304   ZZ=            -66.6582
   XY=              2.3102   XZ=              2.4524   YZ=              1.0844
 Traceless Quadrupole moment (field-independent basis, Debye-Ang):
   XX=             39.4156   YY=            -13.5939   ZZ=            -25.8217
   XY=              2.3102   XZ=              2.4524   YZ=              1.0844
 Octapole moment (field-independent basis, Debye-Ang**2):
  XXX=           -184.0541  YYY=             -3.2255  ZZZ=              1.2526  XYY=            -18.0265
  XXY=             13.7182  XXZ=             22.9499  XZZ=             -3.5661  YZZ=              1.6093
  YYZ=             -2.0587  XYZ=             -8.7755
 Hexadecapole moment (field-independent basis, Debye-Ang**3):
 XXXX=          -3022.2503 YYYY=           -339.1195 ZZZZ=           -187.8848 XXXY=             96.4081
 XXXZ=             75.3972 YYYX=            -17.2900 YYYZ=              6.5303 ZZZX=             -4.2880
 ZZZY=             -2.0481 XXYY=           -673.6385 XXZZ=           -728.6001 YYZZ=            -88.4707
 XXYZ=            -11.8153 YYXZ=             -2.7676 ZZXY=              0.0617
 N-N= 5.775030488208D+02 E-N=-2.212563472332D+03  KE= 4.580649248586D+02
 No NMR shielding tensors so no spin-rotation constants.
 Leave Link  601 at Tue Jun  8 23:19:58 2021, MaxMem=    33554432 cpu:         0.2
 (Enter /opt/app/gaussian09/e01/g09/l701.exe)
 Compute integral first derivatives.
 ... and contract with generalized density number  0.
 Leave Link  701 at Tue Jun  8 23:19:58 2021, MaxMem=    33554432 cpu:         0.2
 (Enter /opt/app/gaussian09/e01/g09/l702.exe)
 L702 exits ... SP integral derivatives will be done elsewhere.
 Leave Link  702 at Tue Jun  8 23:19:58 2021, MaxMem=    33554432 cpu:         0.0
 (Enter /opt/app/gaussian09/e01/g09/l703.exe)
 Compute integral first derivatives, UseDBF=F ICtDFT=           0.
 Integral derivatives from FoFJK, PRISM(SPDF).
 Calling FoFJK, ICntrl=      2127 FMM=F ISym2X=0 I1Cent= 0 IOpClX= 0 NMat=1 NMatS=1 NMatT=0.
 FoFJK:  IHMeth= 1 ICntrl=    2127 DoSepK=F KAlg= 0 I1Cent=   0 FoldK=F
 IRaf=         0 NMat=   1 IRICut=       1 DoRegI=T DoRafI=F ISym2E= 0.
 FoFCou: FMM=F IPFlag=           0 FMFlag=      100000 FMFlg1=         800
         NFxFlg=           0 DoJE=F BraDBF=F KetDBF=F FulRan=T
         wScrn=  0.000000 ICntrl=    2127 IOpCl=  0 I1Cent=           0 NGrid=           0
         NMat0=    1 NMatS0=      1 NMatT0=    0 NMatD0=    1 NMtDS0=    0 NMtDT0=    0
 Symmetry not used in FoFCou.
 Leave Link  703 at Tue Jun  8 23:20:31 2021, MaxMem=    33554432 cpu:        33.3
 (Enter /opt/app/gaussian09/e01/g09/l716.exe)
 Dipole        =-3.35383003D+00-2.69860379D-03 2.31454517D-01
 ***** Axes restored to original set *****
 -------------------------------------------------------------------
 Center     Atomic                   Forces (Hartrees/Bohr)
 Number     Number              X              Y              Z
 -------------------------------------------------------------------
      1        6           0.038936491   -0.021005020   -0.000013990
      2        1          -0.012529290   -0.008341245    0.005819773
      3        6          -0.056504174    0.047472192   -0.001218928
      4        1           0.006430394    0.009954437    0.000245749
      5        6           0.046933298   -0.049200543   -0.004712341
      6        1          -0.012543409   -0.004988313   -0.000155624
      7        6          -0.048584441    0.049869516    0.003766088
      8        1           0.005199648   -0.000087798   -0.002281825
      9        7          -0.002581719    0.006750988   -0.000303730
     10        6           0.052693587   -0.072264809   -0.002906644
     11        1          -0.011303555    0.000868816   -0.000036376
     12        7          -0.016948463    0.034396078   -0.007188150
     13        6          -0.011739022   -0.001132109   -0.013964326
     14        1           0.012250237    0.011433841    0.013728658
     15        1          -0.012824016   -0.003122098    0.009900781
     16        1           0.006023920   -0.014420913   -0.000872709
     17        6          -0.016125493   -0.006450277    0.006973139
     18        1          -0.001906497    0.004107417   -0.014479882
     19        1           0.020858431    0.006637887    0.004948396
     20        1           0.006725692   -0.013695731   -0.000198220
     21        6          -0.010224061    0.007247965    0.004535821
     22        1           0.006451472   -0.004019311    0.007235794
     23        1           0.004970939    0.000945675   -0.016211332
     24        1           0.004152749    0.012219889    0.006808540
     25        6           0.008309882   -0.007761518   -0.001311643
     26        1          -0.012674991   -0.001057988   -0.006539583
     27        1          -0.000896568    0.005690851    0.015924576
     28        1           0.007448960    0.009952120   -0.007492011
 -------------------------------------------------------------------
 Cartesian Forces:  Max     0.072264809 RMS     0.019364146
 Leave Link  716 at Tue Jun  8 23:20:31 2021, MaxMem=    33554432 cpu:         0.0
 (Enter /opt/app/gaussian09/e01/g09/l103.exe)

 GradGradGradGradGradGradGradGradGradGradGradGradGradGradGradGradGradGrad
 Berny optimization.
 FormGI is forming the generalized inverse of G from B-inverse, IUseBI=4.
 GSVD:  received Info=                   1 from GESDD.
 Internal  Forces:  Max     0.058732216 RMS     0.013450889
 Search for a local minimum.
 Step number   1 out of a maximum of  130
 All quantities printed in internal units (Hartrees-Bohrs-Radians)
 RMS Force = .13451D-01 SwitMx=.10000D-02 MixMth= 1
 Mixed Optimization -- RFO/linear search
 Second derivative matrix not updated -- first step.
 ITU=  0
     Eigenvalues ---    0.00237   0.00237   0.00766   0.00766   0.00766
     Eigenvalues ---    0.00766   0.00766   0.01349   0.01459   0.01459
     Eigenvalues ---    0.01459   0.01668   0.01724   0.02681   0.02681
     Eigenvalues ---    0.03099   0.03454   0.07537   0.07537   0.07537
     Eigenvalues ---    0.07537   0.07537   0.07537   0.07537   0.07537
     Eigenvalues ---    0.16000   0.16000   0.16000   0.16000   0.16000
     Eigenvalues ---    0.16000   0.16000   0.16000   0.16000   0.16000
     Eigenvalues ---    0.16000   0.16000   0.16000   0.16000   0.16000
     Eigenvalues ---    0.16000   0.16000   0.16276   0.17820   0.22000
     Eigenvalues ---    0.22000   0.22000   0.22000   0.22000   0.25000
     Eigenvalues ---    0.25000   0.28519   0.28519   0.35740   0.35740
     Eigenvalues ---    0.35740   0.35740   0.35740   0.37230   0.37230
     Eigenvalues ---    0.37230   0.37230   0.37230   0.37230   0.37230
     Eigenvalues ---    0.37230   0.37230   0.37230   0.37230   0.37230
     Eigenvalues ---    0.37230   0.37230   0.37230   0.37230   0.37230
     Eigenvalues ---    0.53930   0.53930   0.69002
 RFO step:  Lambda=-6.95798210D-02 EMin= 2.36824022D-03
 Linear search not attempted -- first point.
 Maximum step size (   0.300) exceeded in Quadratic search.
    -- Step size scaled by   0.679
 Iteration  1 RMS(Cart)=  0.19950212 RMS(Int)=  0.00994251
 Iteration  2 RMS(Cart)=  0.04135184 RMS(Int)=  0.00047566
 Iteration  3 RMS(Cart)=  0.00088032 RMS(Int)=  0.00027143
 Iteration  4 RMS(Cart)=  0.00000035 RMS(Int)=  0.00027143
 ITry= 1 IFail=0 DXMaxC= 8.17D-01 DCOld= 1.00D+10 DXMaxT= 3.00D-01 DXLimC= 3.00D+00 Rises=F
 Variable       Old X    -DE/DX   Delta X   Delta X   Delta X     New X
                                 (Linear)    (Quad)   (Total)
    R1        2.02201   0.01263   0.00000   0.01939   0.01939   2.04140
    R2        2.56096   0.00345   0.00000   0.00385   0.00385   2.56480
    R3        2.77790  -0.02212   0.00000  -0.03516  -0.03516   2.74274
    R4        2.02201   0.00627   0.00000   0.00963   0.00963   2.03164
    R5        2.91018  -0.05834   0.00000  -0.11159  -0.11159   2.79859
    R6        2.02201   0.01245   0.00000   0.01913   0.01913   2.04113
    R7        2.56096   0.00872   0.00000   0.00972   0.00972   2.57067
    R8        2.02201   0.00529   0.00000   0.00812   0.00812   2.03013
    R9        2.91018  -0.05873   0.00000  -0.11234  -0.11234   2.79784
   R10        2.44455   0.02829   0.00000   0.02527   0.02527   2.46982
   R11        2.77790   0.00503   0.00000   0.00800   0.00800   2.78590
   R12        2.77790   0.00491   0.00000   0.00780   0.00780   2.78570
   R13        2.02201   0.01130   0.00000   0.01736   0.01736   2.03936
   R14        2.77790   0.00918   0.00000   0.01460   0.01460   2.79249
   R15        2.77790   0.00844   0.00000   0.01342   0.01342   2.79132
   R16        2.02201   0.02111   0.00000   0.03242   0.03242   2.05443
   R17        2.02201   0.01633   0.00000   0.02508   0.02508   2.04709
   R18        2.02201   0.01555   0.00000   0.02388   0.02388   2.04588
   R19        2.02201   0.01511   0.00000   0.02320   0.02320   2.04521
   R20        2.02201   0.01867   0.00000   0.02867   0.02867   2.05068
   R21        2.02201   0.01523   0.00000   0.02339   0.02339   2.04540
   R22        2.02201   0.00871   0.00000   0.01338   0.01338   2.03538
   R23        2.02201   0.01697   0.00000   0.02606   0.02606   2.04807
   R24        2.02201   0.01454   0.00000   0.02232   0.02232   2.04433
   R25        2.02201   0.01429   0.00000   0.02195   0.02195   2.04396
   R26        2.02201   0.01685   0.00000   0.02587   0.02587   2.04788
   R27        2.02201   0.01450   0.00000   0.02227   0.02227   2.04428
    A1        2.09440  -0.01249   0.00000  -0.02407  -0.02408   2.07032
    A2        2.09440  -0.02946   0.00000  -0.07424  -0.07424   2.02016
    A3        2.09440   0.04195   0.00000   0.09831   0.09831   2.19270
    A4        2.09440   0.01076   0.00000   0.03143   0.03143   2.12582
    A5        2.09440  -0.00118   0.00000  -0.00277  -0.00277   2.09163
    A6        2.09440  -0.00957   0.00000  -0.02866  -0.02866   2.06573
    A7        2.09440  -0.01078   0.00000  -0.02847  -0.02848   2.06592
    A8        2.09440   0.01109   0.00000   0.02598   0.02598   2.12038
    A9        2.09440  -0.00031   0.00000   0.00249   0.00249   2.09688
   A10        2.09440   0.00226   0.00000   0.00526   0.00525   2.09965
   A11        2.09440  -0.00465   0.00000  -0.01089  -0.01090   2.08350
   A12        2.09440   0.00239   0.00000   0.00563   0.00563   2.10002
   A13        2.09440   0.03219   0.00000   0.06834   0.06834   2.16274
   A14        2.09440  -0.00805   0.00000  -0.01709  -0.01709   2.07730
   A15        2.09440  -0.02414   0.00000  -0.05125  -0.05125   2.04314
   A16        2.09440   0.04458   0.00000   0.10448   0.10445   2.19885
   A17        2.09440  -0.02159   0.00000  -0.05016  -0.05018   2.04421
   A18        2.09440  -0.02300   0.00000  -0.05432  -0.05434   2.04005
   A19        1.91063  -0.00422   0.00000   0.00373   0.00194   1.91258
   A20        1.91063   0.01968   0.00000   0.07352   0.07308   1.98371
   A21        1.91063  -0.00271   0.00000   0.00834   0.00688   1.91751
   A22        1.91063   0.00729   0.00000   0.02303   0.02297   1.93360
   A23        1.91063   0.00210   0.00000   0.00575   0.00567   1.91631
   A24        1.91063  -0.00246   0.00000  -0.00830  -0.00829   1.90234
   A25        1.91063  -0.00320   0.00000  -0.00740  -0.00753   1.90310
   A26        1.91063  -0.00177   0.00000  -0.00433  -0.00431   1.90632
   A27        1.91063  -0.00196   0.00000  -0.00875  -0.00876   1.90187
   A28        1.91063   0.00037   0.00000   0.00230   0.00194   1.91257
   A29        1.91063   0.01625   0.00000   0.05040   0.05023   1.96086
   A30        1.91063  -0.00570   0.00000  -0.02041  -0.02033   1.89030
   A31        1.91063  -0.00313   0.00000  -0.00212  -0.00267   1.90796
   A32        1.91063  -0.00078   0.00000  -0.00705  -0.00716   1.90347
   A33        1.91063  -0.00701   0.00000  -0.02312  -0.02288   1.88775
   A34        1.91063   0.00593   0.00000   0.01871   0.01868   1.92931
   A35        1.91063   0.00002   0.00000   0.00107   0.00099   1.91162
   A36        1.91063  -0.00367   0.00000  -0.01305  -0.01304   1.89759
   A37        1.91063   0.00021   0.00000   0.00501   0.00489   1.91552
   A38        1.91063  -0.00260   0.00000  -0.00970  -0.00964   1.90099
   A39        1.91063   0.00011   0.00000  -0.00203  -0.00206   1.90857
   A40        1.91063   0.00042   0.00000   0.00154   0.00153   1.91217
   A41        1.91063   0.00082   0.00000   0.00280   0.00280   1.91343
   A42        1.91063  -0.00063   0.00000  -0.00255  -0.00255   1.90808
   A43        1.91063   0.00036   0.00000   0.00243   0.00243   1.91306
   A44        1.91063  -0.00045   0.00000  -0.00209  -0.00209   1.90855
   A45        1.91063  -0.00052   0.00000  -0.00214  -0.00214   1.90850
    D1       -3.14159  -0.00045   0.00000  -0.00297  -0.00295   3.13865
    D2       -0.00000  -0.00039   0.00000  -0.00243  -0.00239  -0.00240
    D3        0.00000  -0.00109   0.00000  -0.00794  -0.00797  -0.00797
    D4        3.14159  -0.00102   0.00000  -0.00739  -0.00742   3.13417
    D5       -1.57080   0.00749   0.00000   0.06790   0.06832  -1.50247
    D6        2.61799   0.00135   0.00000   0.01037   0.01001   2.62801
    D7        1.57080   0.00813   0.00000   0.07286   0.07322   1.64402
    D8       -0.52360   0.00198   0.00000   0.01534   0.01491  -0.50869
    D9       -0.00000  -0.00039   0.00000  -0.00390  -0.00391  -0.00391
   D10       -3.14159  -0.00084   0.00000  -0.00755  -0.00753   3.13406
   D11        3.14159  -0.00032   0.00000  -0.00335  -0.00337   3.13822
   D12        0.00000  -0.00077   0.00000  -0.00701  -0.00700  -0.00700
   D13       -0.00000   0.00098   0.00000   0.00754   0.00755   0.00755
   D14        3.14159   0.00014   0.00000   0.00083   0.00084  -3.14075
   D15       -3.14159   0.00052   0.00000   0.00388   0.00387  -3.13772
   D16        0.00000  -0.00031   0.00000  -0.00283  -0.00285  -0.00284
   D17       -3.14159   0.00062   0.00000   0.00392   0.00392  -3.13767
   D18       -0.00000  -0.00108   0.00000  -0.00945  -0.00946  -0.00946
   D19        0.00000  -0.00022   0.00000  -0.00280  -0.00279  -0.00279
   D20        3.14159  -0.00192   0.00000  -0.01617  -0.01617   3.12542
   D21       -0.00000  -0.00271   0.00000  -0.01915  -0.01913  -0.01913
   D22       -3.14159  -0.00101   0.00000  -0.00578  -0.00577   3.13582
   D23        3.14159  -0.00282   0.00000  -0.02003  -0.02004   3.12155
   D24        0.00000  -0.00112   0.00000  -0.00666  -0.00669  -0.00668
   D25       -0.52360  -0.00338   0.00000  -0.02184  -0.02192  -0.54552
   D26        1.57080   0.00052   0.00000  -0.00360  -0.00357   1.56722
   D27       -2.61799  -0.00158   0.00000  -0.01342  -0.01339  -2.63139
   D28        2.61799  -0.00327   0.00000  -0.02096  -0.02102   2.59697
   D29       -1.57080   0.00063   0.00000  -0.00272  -0.00268  -1.57347
   D30        0.52360  -0.00147   0.00000  -0.01254  -0.01250   0.51110
   D31       -0.52360   0.00005   0.00000   0.00301   0.00299  -0.52061
   D32        1.57080   0.00126   0.00000   0.00865   0.00864   1.57944
   D33       -2.61799   0.00073   0.00000   0.00619   0.00617  -2.61182
   D34        2.61799  -0.00005   0.00000   0.00213   0.00214   2.62014
   D35       -1.57080   0.00115   0.00000   0.00777   0.00779  -1.56301
   D36        0.52360   0.00062   0.00000   0.00531   0.00532   0.52892
   D37       -1.04720  -0.01073   0.00000  -0.05435  -0.05412  -1.10132
[...]
                 (A) (A) (A) (A) (A) (A) (A) (A) (A) (A) (A) (A)
                 (A) (A) (A) (A) (A) (A) (A) (A) (A) (A) (A) (A)
                 (A) (A) (A) (A) (A) (A) (A) (A) (A) (A) (A) (A)
                 (A) (A) (A) (A) (A) (A) (A) (A) (A) (A) (A) (A)
                 (A) (A) (A) (A) (A) (A) (A) (A) (A) (A) (A) (A)
                 (A) (A) (A) (A) (A) (A) (A) (A) (A) (A) (A) (A)
                 (A) (A) (A) (A) (A) (A) (A) (A) (A) (A) (A) (A)
                 (A) (A) (A) (A) (A) (A) (A) (A) (A) (A) (A) (A)
                 (A) (A) (A) (A) (A) (A) (A) (A) (A) (A) (A) (A)
                 (A) (A) (A) (A) (A) (A) (A) (A) (A) (A) (A) (A)
                 (A) (A) (A) (A)
 The electronic state is 1-A.
 Alpha  occ. eigenvalues --  -14.52871 -14.52871 -10.38435 -10.38435 -10.35079
 Alpha  occ. eigenvalues --  -10.35079 -10.34981 -10.34968 -10.34968 -10.31866
 Alpha  occ. eigenvalues --  -10.31865  -1.10806  -1.10782  -0.95470  -0.90772
 Alpha  occ. eigenvalues --   -0.86381  -0.86360  -0.85828  -0.80970  -0.73667
 Alpha  occ. eigenvalues --   -0.70226  -0.69656  -0.65457  -0.64838  -0.62462
 Alpha  occ. eigenvalues --   -0.60595  -0.60574  -0.60534  -0.55708  -0.55012
 Alpha  occ. eigenvalues --   -0.54001  -0.53877  -0.53872  -0.53321  -0.52080
 Alpha  occ. eigenvalues --   -0.52011  -0.51253  -0.49681  -0.48703  -0.46188
 Alpha  occ. eigenvalues --   -0.41114  -0.32943
 Alpha virt. eigenvalues --   -0.19982  -0.09743  -0.04580  -0.04027  -0.03639
 Alpha virt. eigenvalues --   -0.02923  -0.01128  -0.00500   0.00403   0.01430
 Alpha virt. eigenvalues --    0.01444   0.02370   0.02993   0.02996   0.03358
 Alpha virt. eigenvalues --    0.03415   0.05869   0.05966   0.06796   0.06825
 Alpha virt. eigenvalues --    0.07558   0.08392   0.09617   0.10627   0.16144
 Alpha virt. eigenvalues --    0.19794   0.22694   0.24017   0.26818   0.27226
 Alpha virt. eigenvalues --    0.35078   0.36013   0.36948   0.37332   0.38387
 Alpha virt. eigenvalues --    0.38594   0.40722   0.41406   0.41619   0.44569
 Alpha virt. eigenvalues --    0.45549   0.45978   0.46554   0.46996   0.47836
 Alpha virt. eigenvalues --    0.51390   0.52258   0.53880   0.54423   0.57273
 Alpha virt. eigenvalues --    0.58184   0.60060   0.62380   0.62404   0.66239
 Alpha virt. eigenvalues --    0.66948   0.68565   0.68860   0.70155   0.70538
 Alpha virt. eigenvalues --    0.71137   0.71358   0.71939   0.72891   0.73000
 Alpha virt. eigenvalues --    0.76183   0.76444   0.76930   0.77119   0.78483
 Alpha virt. eigenvalues --    0.78758   0.79803   0.80211   0.83523   0.84514
 Alpha virt. eigenvalues --    0.87404   0.87909   0.91262   0.93876   0.95643
 Alpha virt. eigenvalues --    0.99152   1.08276   1.12513   1.12769   1.13947
 Alpha virt. eigenvalues --    1.14675   1.15510   1.16600   1.17627   1.20054
 Alpha virt. eigenvalues --    1.21517   1.21685   1.24392   1.24424   1.28492
 Alpha virt. eigenvalues --    1.34027   1.35794   1.38451   1.38632   1.51792
 Alpha virt. eigenvalues --    1.52338   1.57848   1.58090   1.67120   1.67724
 Alpha virt. eigenvalues --    1.67912   1.70213   1.70549   1.71408   1.73207
 Alpha virt. eigenvalues --    1.76942   1.78692   1.79284   1.79491   1.81112
 Alpha virt. eigenvalues --    1.83745   1.84858   1.84999   1.89778   1.89924
 Alpha virt. eigenvalues --    1.90033   1.90053   1.90722   1.91097   1.93372
 Alpha virt. eigenvalues --    1.93664   1.94082   1.94222   1.97957   1.99377
 Alpha virt. eigenvalues --    1.99798   2.00682   2.00876   2.03682   2.04045
 Alpha virt. eigenvalues --    2.08163   2.09844   2.16054   2.18926   2.20761
 Alpha virt. eigenvalues --    2.21300   2.21869   2.22148   2.23619   2.29010
 Alpha virt. eigenvalues --    2.32146   2.33301   2.33338   2.36228   2.38950
 Alpha virt. eigenvalues --    2.39873   2.39953   2.44170   2.44426   2.46298
 Alpha virt. eigenvalues --    2.47324   2.48319   2.51954   2.51992   2.54148
 Alpha virt. eigenvalues --    2.54513   2.56032   2.56459   2.58885   2.61833
 Alpha virt. eigenvalues --    2.64620   2.66957   2.68845   2.69656   2.71174
 Alpha virt. eigenvalues --    2.71228   2.75346   2.75472   2.75874   2.79856
 Alpha virt. eigenvalues --    2.81140   2.93792   2.94780   2.96938   2.97905
 Alpha virt. eigenvalues --    3.05179   3.05309   3.09339   3.09598   3.23251
 Alpha virt. eigenvalues --    3.26485   3.28208   3.28214   3.28570   3.28586
 Alpha virt. eigenvalues --    3.29907   3.31304   3.31591   3.36931   3.41962
 Alpha virt. eigenvalues --    3.48213   3.53450   3.89850   3.91896   4.00083
 Alpha virt. eigenvalues --    4.04872   4.12934   4.27972   4.33156   4.34050
 Alpha virt. eigenvalues --    4.37000   4.45564   4.58399
          Condensed to atoms (all electrons):
               1          2          3          4          5          6
     1  C    4.690372   0.383141   0.495590  -0.045161  -0.002422  -0.006599
     2  H    0.383141   0.561764  -0.045387   0.004493  -0.006334   0.005139
     3  C    0.495590  -0.045387   4.910248   0.384191   0.508723  -0.052614
     4  H   -0.045161   0.004493   0.384191   0.584971  -0.040292   0.005003
     5  C   -0.002422  -0.006334   0.508723  -0.040292   4.723029   0.382193
     6  H   -0.006599   0.005139  -0.052614   0.005003   0.382193   0.605904
     7  C    0.002523   0.000308  -0.031028  -0.006824   0.508720  -0.052613
     8  H    0.000329   0.000008  -0.006824   0.003373  -0.040292   0.005003
     9  N    0.000001   0.000000  -0.000124   0.000001   0.001627   0.000193
    10  C   -0.000269   0.000005   0.002523   0.000329  -0.002424  -0.006598
    11  H    0.000005   0.000003   0.000308   0.000008  -0.006334   0.005139
    12  N    0.399936  -0.046718  -0.039774  -0.007860   0.001627   0.000193
    13  C   -0.037534  -0.006938   0.004378  -0.000016  -0.000062  -0.000007
    14  H    0.000341   0.000187  -0.000147   0.000001   0.000004   0.000000
    15  H   -0.002529   0.005873   0.000378  -0.000001  -0.000009  -0.000001
    16  H    0.000327   0.000186  -0.000146   0.000001   0.000004   0.000000
    17  C   -0.048259   0.004562  -0.003334   0.005748   0.000261   0.000015
    18  H   -0.004780  -0.000094   0.003285   0.000276   0.000121  -0.000001
    19  H   -0.004821  -0.000093   0.003315   0.000277   0.000124  -0.000001
    20  H    0.004381  -0.000164   0.000111   0.000040  -0.000012   0.000000
    21  C    0.000000  -0.000000  -0.000000  -0.000002   0.000262   0.000015
    22  H   -0.000000  -0.000000  -0.000011  -0.000001   0.000125  -0.000001
    23  H   -0.000000  -0.000000  -0.000011  -0.000001   0.000120  -0.000001
    24  H    0.000000   0.000000  -0.000000   0.000000  -0.000012   0.000000
    25  C   -0.000000   0.000000   0.000001   0.000000  -0.000062  -0.000007
    26  H    0.000000   0.000000   0.000000   0.000000  -0.000009  -0.000001
    27  H   -0.000000  -0.000000  -0.000000  -0.000000   0.000004   0.000000
    28  H   -0.000000  -0.000000  -0.000000  -0.000000   0.000004   0.000000
               7          8          9         10         11         12
     1  C    0.002523   0.000329   0.000001  -0.000269   0.000005   0.399936
     2  H    0.000308   0.000008   0.000000   0.000005   0.000003  -0.046718
     3  C   -0.031028  -0.006824  -0.000124   0.002523   0.000308  -0.039774
     4  H   -0.006824   0.003373   0.000001   0.000329   0.000008  -0.007860
     5  C    0.508720  -0.040292   0.001627  -0.002424  -0.006334   0.001627
     6  H   -0.052613   0.005003   0.000193  -0.006598   0.005139   0.000193
     7  C    4.910259   0.384191  -0.039775   0.495588  -0.045385  -0.000124
     8  H    0.384191   0.584968  -0.007859  -0.045159   0.004492   0.000001
     9  N   -0.039775  -0.007859   6.722966   0.399940  -0.046719  -0.000000
    10  C    0.495588  -0.045159   0.399940   4.690372   0.383141   0.000001
    11  H   -0.045385   0.004492  -0.046719   0.383141   0.561761   0.000000
    12  N   -0.000124   0.000001  -0.000000   0.000001   0.000000   6.722987
    13  C    0.000001   0.000000   0.000000  -0.000000   0.000000   0.290965
    14  H   -0.000000  -0.000000   0.000000  -0.000000  -0.000000  -0.039054
    15  H    0.000000   0.000000  -0.000000   0.000000   0.000000  -0.032370
    16  H   -0.000000  -0.000000   0.000000  -0.000000  -0.000000  -0.039083
    17  C   -0.000000  -0.000002   0.000000   0.000000  -0.000000   0.281654
    18  H   -0.000011  -0.000001   0.000000  -0.000000  -0.000000  -0.036428
    19  H   -0.000011  -0.000001   0.000000  -0.000000  -0.000000  -0.036362
    20  H   -0.000000   0.000000  -0.000000   0.000000   0.000000  -0.031442
    21  C   -0.003334   0.005748   0.281656  -0.048260   0.004562   0.000000
    22  H    0.003318   0.000277  -0.036353  -0.004826  -0.000093   0.000000
    23  H    0.003282   0.000276  -0.036436  -0.004775  -0.000094   0.000000
    24  H    0.000111   0.000040  -0.031443   0.004381  -0.000164  -0.000000
    25  C    0.004378  -0.000016   0.290968  -0.037535  -0.006938   0.000000
    26  H    0.000378  -0.000001  -0.032370  -0.002529   0.005873  -0.000000
    27  H   -0.000147   0.000001  -0.039055   0.000340   0.000188   0.000000
    28  H   -0.000146   0.000001  -0.039083   0.000327   0.000186   0.000000
              13         14         15         16         17         18
     1  C   -0.037534   0.000341  -0.002529   0.000327  -0.048259  -0.004780
     2  H   -0.006938   0.000187   0.005873   0.000186   0.004562  -0.000094
     3  C    0.004378  -0.000147   0.000378  -0.000146  -0.003334   0.003285
     4  H   -0.000016   0.000001  -0.000001   0.000001   0.005748   0.000276
     5  C   -0.000062   0.000004  -0.000009   0.000004   0.000261   0.000121
     6  H   -0.000007   0.000000  -0.000001   0.000000   0.000015  -0.000001
     7  C    0.000001  -0.000000   0.000000  -0.000000  -0.000000  -0.000011
     8  H    0.000000  -0.000000   0.000000  -0.000000  -0.000002  -0.000001
     9  N    0.000000   0.000000  -0.000000   0.000000   0.000000   0.000000
    10  C   -0.000000  -0.000000   0.000000  -0.000000   0.000000  -0.000000
    11  H    0.000000  -0.000000   0.000000  -0.000000  -0.000000  -0.000000
    12  N    0.290965  -0.039054  -0.032370  -0.039083   0.281654  -0.036428
    13  C    4.818555   0.389353   0.389153   0.389365  -0.040880   0.002037
    14  H    0.389353   0.547207  -0.025190  -0.036044  -0.001652  -0.000325
    15  H    0.389153  -0.025190   0.537514  -0.025209   0.003956  -0.000193
    16  H    0.389365  -0.036044  -0.025209   0.547241  -0.001619   0.001067
    17  C   -0.040880  -0.001652   0.003956  -0.001619   4.834253   0.387092
    18  H    0.002037  -0.000325  -0.000193   0.001067   0.387092   0.548413
    19  H    0.002061   0.001051  -0.000194  -0.000322   0.387041  -0.035963
    20  H   -0.002460   0.000944   0.000244   0.000889   0.392551  -0.025160
    21  C    0.000000   0.000000   0.000000   0.000000  -0.000000   0.000000
    22  H   -0.000000  -0.000000   0.000000   0.000000   0.000000   0.000000
    23  H   -0.000000   0.000000   0.000000  -0.000000   0.000000  -0.000000
    24  H    0.000000  -0.000000   0.000000  -0.000000  -0.000000  -0.000000
    25  C   -0.000000   0.000000   0.000000   0.000000   0.000000  -0.000000
    26  H    0.000000   0.000000  -0.000000   0.000000   0.000000   0.000000
    27  H    0.000000  -0.000000   0.000000   0.000000   0.000000   0.000000
    28  H    0.000000   0.000000   0.000000  -0.000000   0.000000  -0.000000
              19         20         21         22         23         24
     1  C   -0.004821   0.004381   0.000000  -0.000000  -0.000000   0.000000
     2  H   -0.000093  -0.000164  -0.000000  -0.000000  -0.000000   0.000000
     3  C    0.003315   0.000111  -0.000000  -0.000011  -0.000011  -0.000000
     4  H    0.000277   0.000040  -0.000002  -0.000001  -0.000001   0.000000
     5  C    0.000124  -0.000012   0.000262   0.000125   0.000120  -0.000012
     6  H   -0.000001   0.000000   0.000015  -0.000001  -0.000001   0.000000
     7  C   -0.000011  -0.000000  -0.003334   0.003318   0.003282   0.000111
     8  H   -0.000001   0.000000   0.005748   0.000277   0.000276   0.000040
     9  N    0.000000  -0.000000   0.281656  -0.036353  -0.036436  -0.031443
    10  C   -0.000000   0.000000  -0.048260  -0.004826  -0.004775   0.004381
    11  H   -0.000000   0.000000   0.004562  -0.000093  -0.000094  -0.000164
    12  N   -0.036362  -0.031442   0.000000   0.000000   0.000000  -0.000000
    13  C    0.002061  -0.002460   0.000000  -0.000000  -0.000000   0.000000
    14  H    0.001051   0.000944   0.000000  -0.000000   0.000000  -0.000000
    15  H   -0.000194   0.000244   0.000000   0.000000   0.000000   0.000000
    16  H   -0.000322   0.000889   0.000000   0.000000  -0.000000  -0.000000
    17  C    0.387041   0.392551  -0.000000   0.000000   0.000000  -0.000000
    18  H   -0.035963  -0.025160   0.000000   0.000000  -0.000000  -0.000000
    19  H    0.548403  -0.025094   0.000000  -0.000000   0.000000  -0.000000
    20  H   -0.025094   0.527933  -0.000000  -0.000000  -0.000000   0.000000
    21  C    0.000000  -0.000000   4.834256   0.387036   0.387097   0.392550
    22  H   -0.000000  -0.000000   0.387036   0.548399  -0.035962  -0.025087
    23  H    0.000000  -0.000000   0.387097  -0.035962   0.548413  -0.025169
    24  H   -0.000000   0.000000   0.392550  -0.025087  -0.025169   0.527936
    25  C   -0.000000   0.000000  -0.040882   0.002064   0.002034  -0.002460
    26  H    0.000000   0.000000   0.003956  -0.000194  -0.000193   0.000244
    27  H   -0.000000  -0.000000  -0.001653   0.001049  -0.000325   0.000949
    28  H    0.000000  -0.000000  -0.001618  -0.000322   0.001070   0.000884
              25         26         27         28
     1  C   -0.000000   0.000000  -0.000000  -0.000000
     2  H    0.000000   0.000000  -0.000000  -0.000000
     3  C    0.000001   0.000000  -0.000000  -0.000000
     4  H    0.000000   0.000000  -0.000000  -0.000000
     5  C   -0.000062  -0.000009   0.000004   0.000004
     6  H   -0.000007  -0.000001   0.000000   0.000000
     7  C    0.004378   0.000378  -0.000147  -0.000146
     8  H   -0.000016  -0.000001   0.000001   0.000001
     9  N    0.290968  -0.032370  -0.039055  -0.039083
    10  C   -0.037535  -0.002529   0.000340   0.000327
    11  H   -0.006938   0.005873   0.000188   0.000186
    12  N    0.000000  -0.000000   0.000000   0.000000
    13  C   -0.000000   0.000000   0.000000   0.000000
    14  H    0.000000   0.000000  -0.000000   0.000000
    15  H    0.000000  -0.000000   0.000000   0.000000
    16  H    0.000000   0.000000   0.000000  -0.000000
    17  C    0.000000   0.000000   0.000000   0.000000
    18  H   -0.000000   0.000000   0.000000  -0.000000
    19  H   -0.000000   0.000000  -0.000000   0.000000
    20  H    0.000000   0.000000  -0.000000  -0.000000
    21  C   -0.040882   0.003956  -0.001653  -0.001618
    22  H    0.002064  -0.000194   0.001049  -0.000322
    23  H    0.002034  -0.000193  -0.000325   0.001070
    24  H   -0.002460   0.000244   0.000949   0.000884
    25  C    4.818560   0.389152   0.389351   0.389367
    26  H    0.389152   0.537516  -0.025191  -0.025209
    27  H    0.389351  -0.025191   0.547209  -0.036045
    28  H    0.389367  -0.025209  -0.036045   0.547244
 Mulliken charges:
               1
     1  C    0.175429
     2  H    0.140060
     3  C   -0.133650
     4  H    0.111444
     5  C   -0.028684
     6  H    0.109647
     7  C   -0.133658
     8  H    0.111446
     9  N   -0.388136
    10  C    0.175428
    11  H    0.140062
    12  N   -0.388147
    13  C   -0.197969
    14  H    0.163324
    15  H    0.148577
    16  H    0.163342
    17  C   -0.201386
    18  H    0.160665
    19  H    0.160591
    20  H    0.157240
    21  C   -0.201388
    22  H    0.160583
    23  H    0.160674
    24  H    0.157239
    25  C   -0.197974
    26  H    0.148576
    27  H    0.163325
    28  H    0.163340
 Sum of Mulliken charges =   1.00000
 Mulliken charges with hydrogens summed into heavy atoms:
               1
     1  C    0.315489
     3  C   -0.022205
     5  C    0.080963
     7  C   -0.022213
     9  N   -0.388136
    10  C    0.315490
    12  N   -0.388147
    13  C    0.277274
    17  C    0.277109
    21  C    0.277109
    25  C    0.277268
 Electronic spatial extent (au):  <R**2>=           3990.8312
 Charge=              1.0000 electrons
 Dipole moment (field-independent basis, Debye):
    X=             -0.0000    Y=             -0.4889    Z=             -0.0014  Tot=              0.4889
 Quadrupole moment (field-independent basis, Debye-Ang):
   XX=             15.9256   YY=            -53.5202   ZZ=            -68.5519
   XY=              0.0000   XZ=              0.0007   YZ=             -0.0018
 Traceless Quadrupole moment (field-independent basis, Debye-Ang):
   XX=             51.3078   YY=            -18.1381   ZZ=            -33.1697
   XY=              0.0000   XZ=              0.0007   YZ=             -0.0018
 Octapole moment (field-independent basis, Debye-Ang**2):
  XXX=              0.0004  YYY=             -1.5744  ZZZ=             -0.0193  XYY=             -0.0001
  XXY=             -6.7272  XXZ=             -0.0144  XZZ=             -0.0000  YZZ=              2.0839
  YYZ=              0.0040  XYZ=             -0.0041
 Hexadecapole moment (field-independent basis, Debye-Ang**3):
 XXXX=          -2857.5709 YYYY=           -385.3951 ZZZZ=            -92.8391 XXXY=              0.0005
 XXXZ=              0.0056 YYYX=              0.0001 YYYZ=             -0.0005 ZZZX=              0.0038
 ZZZY=             -0.0230 XXYY=           -700.1599 XXZZ=           -784.3394 YYZZ=            -84.1922
 XXYZ=              0.0453 YYXZ=              0.0021 ZZXY=             -0.0003
 N-N= 5.733928590172D+02 E-N=-2.204526274153D+03  KE= 4.578652903203D+02
 No NMR shielding tensors so no spin-rotation constants.
 Leave Link  601 at Wed Jun  9 00:25:18 2021, MaxMem=    33554432 cpu:         0.2
 (Enter /opt/app/gaussian09/e01/g09/l9999.exe)
 1\1\GINC-NB-0054\FOpt\RB3LYP\6-31G(d,p)\C9H17N2(1+)\ROOT\09-Jun-2021\0
 \\#p opt b3lyp/6-31g(d,p) geom=connectivity SCF=tight\\opt\\1,1\C,-4.7
 56830914,-1.0235787872,0.2689691413\H,-5.7634821842,-0.9923707207,0.67
 96351499\C,-4.1318256595,0.1806566367,-0.0492613893\H,-3.1282383401,0.
 1870743585,-0.4610114071\C,-4.7912271783,1.3920603262,0.1585606566\H,-
 5.7990074384,1.34478324,0.5740876051\C,-4.2763231833,2.6585616759,-0.1
 178007431\H,-3.2774441536,2.7460563171,-0.5317501498\N,-4.6762496411,5
 .0580321057,-0.0773619619\C,-5.0380329579,3.7977436163,0.1355168711\H,
 -6.0355942006,3.6725157436,0.5504359733\N,-4.2504348158,-2.2431288691,
 0.1247009106\C,-5.0112093987,-3.4381460447,0.4968225439\H,-4.475768576
 7,-3.9989635424,1.268874495\H,-5.9893755957,-3.1498932729,0.8826748043
 \H,-5.1495217321,-4.0825041836,-0.3766610235\C,-2.9031257976,-2.447019
 6703,-0.4165514935\H,-2.8328267395,-2.0468259302,-1.4325946639\H,-2.15
 70833107,-1.956415402,0.2159604362\H,-2.6904067693,-3.5147802438,-0.44
 51044929\C,-3.3599362417,5.3869035956,-0.6331676944\H,-2.5640822608,5.
 0213223727,0.0228061695\H,-3.2404576144,4.9427692511,-1.6261008329\H,-
 3.2723285404,6.4689708136,-0.7205624263\C,-5.5720060636,6.1752554144,0
 .2303917712\H,-6.5115168666,5.7970463713,0.6342035838\H,-5.1081818111,
 6.8361556439,0.9688781817\H,-5.7809875243,6.7500879243,-0.6769122251\\
 Version=ES64L-G09RevE.01\State=1-A\HF=-462.4967776\RMSD=2.200e-09\RMSF
 =4.129e-06\Dipole=-0.1779198,-0.0083583,0.0726388\Quadrupole=-14.90998
 02,37.9063334,-22.9963532,-3.2006267,-3.8256797,-1.9164041\PG=C01 [X(C
 9H17N2)]\\@


 There ain't no surer way to find out whether you
 like people or hate them than to travel with them.
                                     -- Mark Twain
 Job cpu time:       0 days  1 hours  8 minutes 11.5 seconds.
 File lengths (MBytes):  RWF=     41 Int=      0 D2E=      0 Chk=      6 Scr=      1
 Normal termination of Gaussian 09 at Wed Jun  9 00:25:18 2021.
