td                                                                      
SP        RB3LYP TD-FC                                                6-31G(d,p)          
Number of atoms                            I               20
Info1-9                                    I   N=           9
          48          27           0           0           0         110
           1         218        -501
Charge                                     I                1
Multiplicity                               I                1
Number of electrons                        I               80
Number of alpha electrons                  I               40
Number of beta electrons                   I               40
Number of basis functions                  I              210
Number of independent functions            I              210
Number of point charges in /Mol/           I                0
Number of translation vectors              I                0
Atomic numbers                             I   N=          20
           6           1           6           1           6           1
           6           1           7           1           1           6
           1           7           6           6           1           8
           1           8
Nuclear charges                            R   N=          20
  6.00000000E+00  1.00000000E+00  6.00000000E+00  1.00000000E+00  6.00000000E+00
  1.00000000E+00  6.00000000E+00  1.00000000E+00  7.00000000E+00  1.00000000E+00
  1.00000000E+00  6.00000000E+00  1.00000000E+00  7.00000000E+00  6.00000000E+00
  6.00000000E+00  1.00000000E+00  8.00000000E+00  1.00000000E+00  8.00000000E+00
Current cartesian coordinates              R   N=          60
 -1.44113794E+00  7.09774198E-01 -4.63122882E-06 -1.29983822E+00  2.76131352E+00
 -4.06431098E-06  7.07672728E-01 -7.39624939E-01  1.71825098E-06  6.56511115E-01
 -2.78867037E+00  1.98596219E-05  3.08211017E+00  4.75313423E-01 -8.22170848E-06
  3.07795827E+00  2.53527788E+00 -1.87474830E-05  5.39744029E+00 -7.41227045E-01
  4.71031736E-07  5.49178380E+00 -2.79347261E+00  7.36853212E-06  9.93695593E+00
 -2.99384940E-01  4.53394292E-06  1.14832568E+01  8.23141467E-01  1.56707289E-06
  1.02386823E+01 -2.18949206E+00  2.01808753E-05  7.63449308E+00  6.63399097E-01
 -1.58876975E-06  7.54027619E+00  2.71705153E+00 -2.12986133E-05 -3.90512251E+00
 -6.59006127E-02 -2.11789307E-06 -4.70712198E+00 -2.64660382E+00 -1.17303000E-06
 -5.83807748E+00  1.88083995E+00  9.62360531E-07 -3.13672372E+00 -4.00466807E+00
 -9.65160125E-07 -6.89947591E+00 -3.23123580E+00 -9.46262864E-07 -7.74379254E+00
  1.07694560E+00  1.98281264E-06 -5.29342673E+00  4.08227915E+00  7.44412117E-06
Force Field                                I                0
Int Atom Types                             I   N=          20
           0           0           0           0           0           0
           0           0           0           0           0           0
           0           0           0           0           0           0
           0           0
MM charges                                 R   N=          20
  0.00000000E+00  0.00000000E+00  0.00000000E+00  0.00000000E+00  0.00000000E+00
  0.00000000E+00  0.00000000E+00  0.00000000E+00  0.00000000E+00  0.00000000E+00
  0.00000000E+00  0.00000000E+00  0.00000000E+00  0.00000000E+00  0.00000000E+00
  0.00000000E+00  0.00000000E+00  0.00000000E+00  0.00000000E+00  0.00000000E+00
Integer atomic weights                     I   N=          20
          12           1          12           1          12           1
          12           1          14           1           1          12
           1          14          12          12           1          16
           1          16
Real atomic weights                        R   N=          20
  1.20000000E+01  1.00782504E+00  1.20000000E+01  1.00782504E+00  1.20000000E+01
  1.00782504E+00  1.20000000E+01  1.00782504E+00  1.40030740E+01  1.00782504E+00
  1.00782504E+00  1.20000000E+01  1.00782504E+00  1.40030740E+01  1.20000000E+01
  1.20000000E+01  1.00782504E+00  1.59949146E+01  1.00782504E+00  1.59949146E+01
Atom fragment info                         I   N=          20
           0           0           0           0           0           0
           0           0           0           0           0           0
           0           0           0           0           0           0
           0           0
Atom residue num                           I   N=          20
           0           0           0           0           0           0
           0           0           0           0           0           0
           0           0           0           0           0           0
           0           0
Nuclear spins                              I   N=          20
           0           1           0           1           0           1
           0           1           2           1           1           0
           1           2           0           0           1           0
           1           0
Nuclear ZEff                               R   N=          20
 -3.60000000E+00 -1.00000000E+00 -3.60000000E+00 -1.00000000E+00 -3.60000000E+00
 -1.00000000E+00 -3.60000000E+00 -1.00000000E+00 -4.55000000E+00 -1.00000000E+00
 -1.00000000E+00 -3.60000000E+00 -1.00000000E+00 -4.55000000E+00 -3.60000000E+00
 -3.60000000E+00 -1.00000000E+00 -5.60000000E+00 -1.00000000E+00 -5.60000000E+00
Nuclear ZNuc                               R   N=          20
  6.00000000E+00  1.00000000E+00  6.00000000E+00  1.00000000E+00  6.00000000E+00
  1.00000000E+00  6.00000000E+00  1.00000000E+00  7.00000000E+00  1.00000000E+00
  1.00000000E+00  6.00000000E+00  1.00000000E+00  7.00000000E+00  6.00000000E+00
  6.00000000E+00  1.00000000E+00  8.00000000E+00  1.00000000E+00  8.00000000E+00
Nuclear QMom                               R   N=          20
  0.00000000E+00  0.00000000E+00  0.00000000E+00  0.00000000E+00  0.00000000E+00
  0.00000000E+00  0.00000000E+00  0.00000000E+00  2.04400000E+00  0.00000000E+00
  0.00000000E+00  0.00000000E+00  0.00000000E+00  2.04400000E+00  0.00000000E+00
  0.00000000E+00  0.00000000E+00  0.00000000E+00  0.00000000E+00  0.00000000E+00
Nuclear GFac                               R   N=          20
  0.00000000E+00  2.79284600E+00  0.00000000E+00  2.79284600E+00  0.00000000E+00
  2.79284600E+00  0.00000000E+00  2.79284600E+00  4.03761000E-01  2.79284600E+00
  2.79284600E+00  0.00000000E+00  2.79284600E+00  4.03761000E-01  0.00000000E+00
  0.00000000E+00  2.79284600E+00  0.00000000E+00  2.79284600E+00  0.00000000E+00
MicOpt                                     I   N=          20
          -1          -1          -1          -1          -1          -1
          -1          -1          -1          -1          -1          -1
          -1          -1          -1          -1          -1          -1
          -1          -1
SymInf integers                            I   N=          26
           1           1           1           1           1           0
           0           0           0           0           0           0
           0           0           0           0           0           0
           0           0           0           0           0           0
           0           0
RotTr to input orientation                 R   N=          12
  1.00000000E+00  7.51419466E-10  0.00000000E+00  7.51419466E-10 -1.00000000E+00
  0.00000000E+00  0.00000000E+00  0.00000000E+00 -1.00000000E+00  3.03289360E-09
 -1.39979713E-09 -1.39979714E-09
Number of contracted shells                I               71
Number of primitive shells                 I              166
Pure/Cartesian d shells                    I                1
Pure/Cartesian f shells                    I                0
Highest angular momentum                   I                2
Largest degree of contraction              I                6
Shell types                                I   N=          71
           0          -1          -1           2           0           0
           1           0          -1          -1           2           0
           0           1           0          -1          -1           2
           0           0           1           0          -1          -1
           2           0           0           1           0          -1
          -1           2           0           0           1           0
           0           1           0          -1          -1           2
           0           0           1           0          -1          -1
           2           0          -1          -1           2           0
          -1          -1           2           0           0           1
           0          -1          -1           2           0           0
           1           0          -1          -1           2
Number of primitives per shell             I   N=          71
           6           3           1           1           3           1
           1           6           3           1           1           3
           1           1           6           3           1           1
           3           1           1           6           3           1
           1           3           1           1           6           3
           1           1           3           1           1           3
           1           1           6           3           1           1
           3           1           1           6           3           1
           1           6           3           1           1           6
           3           1           1           3           1           1
           6           3           1           1           3           1
           1           6           3           1           1
Shell to atom map                          I   N=          71
           1           1           1           1           2           2
           2           3           3           3           3           4
           4           4           5           5           5           5
           6           6           6           7           7           7
           7           8           8           8           9           9
           9           9          10          10          10          11
          11          11          12          12          12          12
          13          13          13          14          14          14
          14          15          15          15          15          16
          16          16          16          17          17          17
          18          18          18          18          19          19
          19          20          20          20          20
Primitive exponents                        R   N=         166
  3.04752488E+03  4.57369518E+02  1.03948685E+02  2.92101553E+01  9.28666296E+00
  3.16392696E+00  7.86827235E+00  1.88128854E+00  5.44249258E-01  1.68714478E-01
  8.00000000E-01  1.87311370E+01  2.82539436E+00  6.40121692E-01  1.61277759E-01
  1.10000000E+00  3.04752488E+03  4.57369518E+02  1.03948685E+02  2.92101553E+01
  9.28666296E+00  3.16392696E+00  7.86827235E+00  1.88128854E+00  5.44249258E-01
  1.68714478E-01  8.00000000E-01  1.87311370E+01  2.82539436E+00  6.40121692E-01
  1.61277759E-01  1.10000000E+00  3.04752488E+03  4.57369518E+02  1.03948685E+02
  2.92101553E+01  9.28666296E+00  3.16392696E+00  7.86827235E+00  1.88128854E+00
  5.44249258E-01  1.68714478E-01  8.00000000E-01  1.87311370E+01  2.82539436E+00
  6.40121692E-01  1.61277759E-01  1.10000000E+00  3.04752488E+03  4.57369518E+02
  1.03948685E+02  2.92101553E+01  9.28666296E+00  3.16392696E+00  7.86827235E+00
  1.88128854E+00  5.44249258E-01  1.68714478E-01  8.00000000E-01  1.87311370E+01
  2.82539436E+00  6.40121692E-01  1.61277759E-01  1.10000000E+00  4.17351146E+03
  6.27457911E+02  1.42902093E+02  4.02343293E+01  1.28202129E+01  4.39043701E+00
  1.16263619E+01  2.71627981E+00  7.72218397E-01  2.12031498E-01  8.00000000E-01
  1.87311370E+01  2.82539436E+00  6.40121692E-01  1.61277759E-01  1.10000000E+00
  1.87311370E+01  2.82539436E+00  6.40121692E-01  1.61277759E-01  1.10000000E+00
  3.04752488E+03  4.57369518E+02  1.03948685E+02  2.92101553E+01  9.28666296E+00
  3.16392696E+00  7.86827235E+00  1.88128854E+00  5.44249258E-01  1.68714478E-01
  8.00000000E-01  1.87311370E+01  2.82539436E+00  6.40121692E-01  1.61277759E-01
  1.10000000E+00  4.17351146E+03  6.27457911E+02  1.42902093E+02  4.02343293E+01
  1.28202129E+01  4.39043701E+00  1.16263619E+01  2.71627981E+00  7.72218397E-01
  2.12031498E-01  8.00000000E-01  3.04752488E+03  4.57369518E+02  1.03948685E+02
  2.92101553E+01  9.28666296E+00  3.16392696E+00  7.86827235E+00  1.88128854E+00
  5.44249258E-01  1.68714478E-01  8.00000000E-01  3.04752488E+03  4.57369518E+02
  1.03948685E+02  2.92101553E+01  9.28666296E+00  3.16392696E+00  7.86827235E+00
  1.88128854E+00  5.44249258E-01  1.68714478E-01  8.00000000E-01  1.87311370E+01
  2.82539436E+00  6.40121692E-01  1.61277759E-01  1.10000000E+00  5.48467166E+03
  8.25234946E+02  1.88046958E+02  5.29645000E+01  1.68975704E+01  5.79963534E+00
  1.55396162E+01  3.59993359E+00  1.01376175E+00  2.70005823E-01  8.00000000E-01
  1.87311370E+01  2.82539436E+00  6.40121692E-01  1.61277759E-01  1.10000000E+00
  5.48467166E+03  8.25234946E+02  1.88046958E+02  5.29645000E+01  1.68975704E+01
  5.79963534E+00  1.55396162E+01  3.59993359E+00  1.01376175E+00  2.70005823E-01
  8.00000000E-01
Contraction coefficients                   R   N=         166
  1.83473713E-03  1.40373228E-02  6.88426223E-02  2.32184443E-01  4.67941348E-01
  3.62311985E-01 -1.19332420E-01 -1.60854152E-01  1.14345644E+00  1.00000000E+00
  1.00000000E+00  3.34946043E-02  2.34726953E-01  8.13757326E-01  1.00000000E+00
  1.00000000E+00  1.83473713E-03  1.40373228E-02  6.88426223E-02  2.32184443E-01
  4.67941348E-01  3.62311985E-01 -1.19332420E-01 -1.60854152E-01  1.14345644E+00
  1.00000000E+00  1.00000000E+00  3.34946043E-02  2.34726953E-01  8.13757326E-01
  1.00000000E+00  1.00000000E+00  1.83473713E-03  1.40373228E-02  6.88426223E-02
  2.32184443E-01  4.67941348E-01  3.62311985E-01 -1.19332420E-01 -1.60854152E-01
  1.14345644E+00  1.00000000E+00  1.00000000E+00  3.34946043E-02  2.34726953E-01
  8.13757326E-01  1.00000000E+00  1.00000000E+00  1.83473713E-03  1.40373228E-02
  6.88426223E-02  2.32184443E-01  4.67941348E-01  3.62311985E-01 -1.19332420E-01
 -1.60854152E-01  1.14345644E+00  1.00000000E+00  1.00000000E+00  3.34946043E-02
  2.34726953E-01  8.13757326E-01  1.00000000E+00  1.00000000E+00  1.83477216E-03
  1.39946270E-02  6.85865518E-02  2.32240873E-01  4.69069948E-01  3.60455199E-01
 -1.14961182E-01 -1.69117479E-01  1.14585195E+00  1.00000000E+00  1.00000000E+00
  3.34946043E-02  2.34726953E-01  8.13757326E-01  1.00000000E+00  1.00000000E+00
  3.34946043E-02  2.34726953E-01  8.13757326E-01  1.00000000E+00  1.00000000E+00
  1.83473713E-03  1.40373228E-02  6.88426223E-02  2.32184443E-01  4.67941348E-01
  3.62311985E-01 -1.19332420E-01 -1.60854152E-01  1.14345644E+00  1.00000000E+00
  1.00000000E+00  3.34946043E-02  2.34726953E-01  8.13757326E-01  1.00000000E+00
  1.00000000E+00  1.83477216E-03  1.39946270E-02  6.85865518E-02  2.32240873E-01
  4.69069948E-01  3.60455199E-01 -1.14961182E-01 -1.69117479E-01  1.14585195E+00
  1.00000000E+00  1.00000000E+00  1.83473713E-03  1.40373228E-02  6.88426223E-02
  2.32184443E-01  4.67941348E-01  3.62311985E-01 -1.19332420E-01 -1.60854152E-01
  1.14345644E+00  1.00000000E+00  1.00000000E+00  1.83473713E-03  1.40373228E-02
  6.88426223E-02  2.32184443E-01  4.67941348E-01  3.62311985E-01 -1.19332420E-01
 -1.60854152E-01  1.14345644E+00  1.00000000E+00  1.00000000E+00  3.34946043E-02
  2.34726953E-01  8.13757326E-01  1.00000000E+00  1.00000000E+00  1.83107443E-03
  1.39501722E-02  6.84450781E-02  2.32714336E-01  4.70192898E-01  3.58520853E-01
 -1.10777550E-01 -1.48026263E-01  1.13076702E+00  1.00000000E+00  1.00000000E+00
  3.34946043E-02  2.34726953E-01  8.13757326E-01  1.00000000E+00  1.00000000E+00
  1.83107443E-03  1.39501722E-02  6.84450781E-02  2.32714336E-01  4.70192898E-01
  3.58520853E-01 -1.10777550E-01 -1.48026263E-01  1.13076702E+00  1.00000000E+00
  1.00000000E+00
P(S=P) Contraction coefficients            R   N=         166
  0.00000000E+00  0.00000000E+00  0.00000000E+00  0.00000000E+00  0.00000000E+00
  0.00000000E+00  6.89990666E-02  3.16423961E-01  7.44308291E-01  1.00000000E+00
  0.00000000E+00  0.00000000E+00  0.00000000E+00  0.00000000E+00  0.00000000E+00
  0.00000000E+00  0.00000000E+00  0.00000000E+00  0.00000000E+00  0.00000000E+00
  0.00000000E+00  0.00000000E+00  6.89990666E-02  3.16423961E-01  7.44308291E-01
  1.00000000E+00  0.00000000E+00  0.00000000E+00  0.00000000E+00  0.00000000E+00
  0.00000000E+00  0.00000000E+00  0.00000000E+00  0.00000000E+00  0.00000000E+00
  0.00000000E+00  0.00000000E+00  0.00000000E+00  6.89990666E-02  3.16423961E-01
  7.44308291E-01  1.00000000E+00  0.00000000E+00  0.00000000E+00  0.00000000E+00
  0.00000000E+00  0.00000000E+00  0.00000000E+00  0.00000000E+00  0.00000000E+00
  0.00000000E+00  0.00000000E+00  0.00000000E+00  0.00000000E+00  6.89990666E-02
  3.16423961E-01  7.44308291E-01  1.00000000E+00  0.00000000E+00  0.00000000E+00
  0.00000000E+00  0.00000000E+00  0.00000000E+00  0.00000000E+00  0.00000000E+00
  0.00000000E+00  0.00000000E+00  0.00000000E+00  0.00000000E+00  0.00000000E+00
  6.75797439E-02  3.23907296E-01  7.40895140E-01  1.00000000E+00  0.00000000E+00
  0.00000000E+00  0.00000000E+00  0.00000000E+00  0.00000000E+00  0.00000000E+00
  0.00000000E+00  0.00000000E+00  0.00000000E+00  0.00000000E+00  0.00000000E+00
  0.00000000E+00  0.00000000E+00  0.00000000E+00  0.00000000E+00  0.00000000E+00
  0.00000000E+00  6.89990666E-02  3.16423961E-01  7.44308291E-01  1.00000000E+00
  0.00000000E+00  0.00000000E+00  0.00000000E+00  0.00000000E+00  0.00000000E+00
  0.00000000E+00  0.00000000E+00  0.00000000E+00  0.00000000E+00  0.00000000E+00
  0.00000000E+00  0.00000000E+00  6.75797439E-02  3.23907296E-01  7.40895140E-01
  1.00000000E+00  0.00000000E+00  0.00000000E+00  0.00000000E+00  0.00000000E+00
  0.00000000E+00  0.00000000E+00  0.00000000E+00  6.89990666E-02  3.16423961E-01
  7.44308291E-01  1.00000000E+00  0.00000000E+00  0.00000000E+00  0.00000000E+00
  0.00000000E+00  0.00000000E+00  0.00000000E+00  0.00000000E+00  6.89990666E-02
  3.16423961E-01  7.44308291E-01  1.00000000E+00  0.00000000E+00  0.00000000E+00
  0.00000000E+00  0.00000000E+00  0.00000000E+00  0.00000000E+00  0.00000000E+00
  0.00000000E+00  0.00000000E+00  0.00000000E+00  0.00000000E+00  0.00000000E+00
  7.08742682E-02  3.39752839E-01  7.27158577E-01  1.00000000E+00  0.00000000E+00
  0.00000000E+00  0.00000000E+00  0.00000000E+00  0.00000000E+00  0.00000000E+00
  0.00000000E+00  0.00000000E+00  0.00000000E+00  0.00000000E+00  0.00000000E+00
  0.00000000E+00  7.08742682E-02  3.39752839E-01  7.27158577E-01  1.00000000E+00
  0.00000000E+00
Coordinates of each shell                  R   N=         213
 -1.44113794E+00  7.09774198E-01 -4.63122882E-06 -1.44113794E+00  7.09774198E-01
 -4.63122882E-06 -1.44113794E+00  7.09774198E-01 -4.63122882E-06 -1.44113794E+00
  7.09774198E-01 -4.63122882E-06 -1.29983822E+00  2.76131352E+00 -4.06431098E-06
 -1.29983822E+00  2.76131352E+00 -4.06431098E-06 -1.29983822E+00  2.76131352E+00
 -4.06431098E-06  7.07672728E-01 -7.39624939E-01  1.71825098E-06  7.07672728E-01
 -7.39624939E-01  1.71825098E-06  7.07672728E-01 -7.39624939E-01  1.71825098E-06
  7.07672728E-01 -7.39624939E-01  1.71825098E-06  6.56511115E-01 -2.78867037E+00
  1.98596219E-05  6.56511115E-01 -2.78867037E+00  1.98596219E-05  6.56511115E-01
 -2.78867037E+00  1.98596219E-05  3.08211017E+00  4.75313423E-01 -8.22170848E-06
  3.08211017E+00  4.75313423E-01 -8.22170848E-06  3.08211017E+00  4.75313423E-01
 -8.22170848E-06  3.08211017E+00  4.75313423E-01 -8.22170848E-06  3.07795827E+00
  2.53527788E+00 -1.87474830E-05  3.07795827E+00  2.53527788E+00 -1.87474830E-05
  3.07795827E+00  2.53527788E+00 -1.87474830E-05  5.39744029E+00 -7.41227045E-01
  4.71031736E-07  5.39744029E+00 -7.41227045E-01  4.71031736E-07  5.39744029E+00
 -7.41227045E-01  4.71031736E-07  5.39744029E+00 -7.41227045E-01  4.71031736E-07
  5.49178380E+00 -2.79347261E+00  7.36853212E-06  5.49178380E+00 -2.79347261E+00
  7.36853212E-06  5.49178380E+00 -2.79347261E+00  7.36853212E-06  9.93695593E+00
 -2.99384940E-01  4.53394292E-06  9.93695593E+00 -2.99384940E-01  4.53394292E-06
  9.93695593E+00 -2.99384940E-01  4.53394292E-06  9.93695593E+00 -2.99384940E-01
  4.53394292E-06  1.14832568E+01  8.23141467E-01  1.56707289E-06  1.14832568E+01
  8.23141467E-01  1.56707289E-06  1.14832568E+01  8.23141467E-01  1.56707289E-06
  1.02386823E+01 -2.18949206E+00  2.01808753E-05  1.02386823E+01 -2.18949206E+00
  2.01808753E-05  1.02386823E+01 -2.18949206E+00  2.01808753E-05  7.63449308E+00
  6.63399097E-01 -1.58876975E-06  7.63449308E+00  6.63399097E-01 -1.58876975E-06
  7.63449308E+00  6.63399097E-01 -1.58876975E-06  7.63449308E+00  6.63399097E-01
 -1.58876975E-06  7.54027619E+00  2.71705153E+00 -2.12986133E-05  7.54027619E+00
  2.71705153E+00 -2.12986133E-05  7.54027619E+00  2.71705153E+00 -2.12986133E-05
 -3.90512251E+00 -6.59006127E-02 -2.11789307E-06 -3.90512251E+00 -6.59006127E-02
 -2.11789307E-06 -3.90512251E+00 -6.59006127E-02 -2.11789307E-06 -3.90512251E+00
 -6.59006127E-02 -2.11789307E-06 -4.70712198E+00 -2.64660382E+00 -1.17303000E-06
 -4.70712198E+00 -2.64660382E+00 -1.17303000E-06 -4.70712198E+00 -2.64660382E+00
 -1.17303000E-06 -4.70712198E+00 -2.64660382E+00 -1.17303000E-06 -5.83807748E+00
  1.88083995E+00  9.62360531E-07 -5.83807748E+00  1.88083995E+00  9.62360531E-07
 -5.83807748E+00  1.88083995E+00  9.62360531E-07 -5.83807748E+00  1.88083995E+00
  9.62360531E-07 -3.13672372E+00 -4.00466807E+00 -9.65160125E-07 -3.13672372E+00
 -4.00466807E+00 -9.65160125E-07 -3.13672372E+00 -4.00466807E+00 -9.65160125E-07
 -6.89947591E+00 -3.23123580E+00 -9.46262864E-07 -6.89947591E+00 -3.23123580E+00
 -9.46262864E-07 -6.89947591E+00 -3.23123580E+00 -9.46262864E-07 -6.89947591E+00
 -3.23123580E+00 -9.46262864E-07 -7.74379254E+00  1.07694560E+00  1.98281264E-06
 -7.74379254E+00  1.07694560E+00  1.98281264E-06 -7.74379254E+00  1.07694560E+00
  1.98281264E-06 -5.29342673E+00  4.08227915E+00  7.44412117E-06 -5.29342673E+00
  4.08227915E+00  7.44412117E-06 -5.29342673E+00  4.08227915E+00  7.44412117E-06
 -5.29342673E+00  4.08227915E+00  7.44412117E-06
Constraint Structure                       R   N=          60
 -1.44113794E+00  7.09774198E-01 -4.63122882E-06 -1.29983822E+00  2.76131352E+00
 -4.06431098E-06  7.07672728E-01 -7.39624939E-01  1.71825098E-06  6.56511115E-01
 -2.78867037E+00  1.98596219E-05  3.08211017E+00  4.75313423E-01 -8.22170848E-06
  3.07795827E+00  2.53527788E+00 -1.87474830E-05  5.39744029E+00 -7.41227045E-01
  4.71031736E-07  5.49178380E+00 -2.79347261E+00  7.36853212E-06  9.93695593E+00
 -2.99384940E-01  4.53394292E-06  1.14832568E+01  8.23141467E-01  1.56707289E-06
  1.02386823E+01 -2.18949206E+00  2.01808753E-05  7.63449308E+00  6.63399097E-01
 -1.58876975E-06  7.54027619E+00  2.71705153E+00 -2.12986133E-05 -3.90512251E+00
 -6.59006127E-02 -2.11789307E-06 -4.70712198E+00 -2.64660382E+00 -1.17303000E-06
 -5.83807748E+00  1.88083995E+00  9.62360531E-07 -3.13672372E+00 -4.00466807E+00
 -9.65160125E-07 -6.89947591E+00 -3.23123580E+00 -9.46262864E-07 -7.74379254E+00
  1.07694560E+00  1.98281264E-06 -5.29342673E+00  4.08227915E+00  7.44412117E-06
Num ILSW                                   I              100
ILSW                                       I   N=         100
           0           1           0           0           2           0
           0           0           0           0         402          -1
           0           0           0           0           0           0
           0           0           0           0           0           0
           1           0           0           0           0           0
           0           0      100000           0          -1           0
           0           0           0           0           0           0
           0           0           0           1           0           0
           0           0           1           0           0           0
           0           0           4          41           0           0
           0           0           5           0           0           0
           0           0           0          20           0           0
           0           0           0           0           0           0
           0           0           0           0           0           0
           0           0           0           0           0           0
           0           0           0           0           0           0
           0           0           0           0
Num RLSW                                   I               41
RLSW                                       R   N=          41
  8.00000000E-01  7.20000000E-01  1.00000000E+00  8.10000000E-01  2.00000000E-01
  0.00000000E+00  0.00000000E+00  1.00000000E+00  0.00000000E+00  0.00000000E+00
  0.00000000E+00  0.00000000E+00  1.00000000E+00  0.00000000E+00  0.00000000E+00
  0.00000000E+00  0.00000000E+00  1.00000000E+00  0.00000000E+00  0.00000000E+00
  0.00000000E+00  0.00000000E+00  1.00000000E+00  0.00000000E+00  0.00000000E+00
  0.00000000E+00  0.00000000E+00  1.00000000E+00  0.00000000E+00  0.00000000E+00
  0.00000000E+00  0.00000000E+00  1.00000000E+00  0.00000000E+00  0.00000000E+00
  0.00000000E+00  0.00000000E+00  0.00000000E+00  1.00000000E+00  1.00000000E+00
  0.00000000E+00
MxBond                                     I                3
NBond                                      I   N=          20
           3           1           3           1           3           1
           3           1           3           1           1           3
           1           3           3           3           1           1
           1           1
IBond                                      I   N=          60
           2           3          14           1           0           0
           1           4           5           3           0           0
           3           6           7           5           0           0
           5           8          12           7           0           0
          10          11          12           9           0           0
           9           0           0           7           9          13
          12           0           0           1          15          16
          14          17          18          14          19          20
          15           0           0          15           0           0
          16           0           0          16           0           0
RBond                                      R   N=          60
  1.00000000E+00  1.50000000E+00  1.50000000E+00  1.00000000E+00  0.00000000E+00
  0.00000000E+00  1.50000000E+00  1.00000000E+00  1.50000000E+00  1.00000000E+00
  0.00000000E+00  0.00000000E+00  1.50000000E+00  1.00000000E+00  1.50000000E+00
  1.00000000E+00  0.00000000E+00  0.00000000E+00  1.50000000E+00  1.00000000E+00
  1.50000000E+00  1.00000000E+00  0.00000000E+00  0.00000000E+00  1.00000000E+00
  1.00000000E+00  1.50000000E+00  1.00000000E+00  0.00000000E+00  0.00000000E+00
  1.00000000E+00  0.00000000E+00  0.00000000E+00  1.50000000E+00  1.50000000E+00
  1.00000000E+00  1.00000000E+00  0.00000000E+00  0.00000000E+00  1.50000000E+00
  1.00000000E+00  1.00000000E+00  1.00000000E+00  1.00000000E+00  2.00000000E+00
  1.00000000E+00  1.00000000E+00  2.00000000E+00  1.00000000E+00  0.00000000E+00
  0.00000000E+00  2.00000000E+00  0.00000000E+00  0.00000000E+00  1.00000000E+00
  0.00000000E+00  0.00000000E+00  2.00000000E+00  0.00000000E+00  0.00000000E+00
Virial Ratio                               R      2.009512010688514E+00
SCF Energy                                 R     -5.318733888281504E+02
CIS Energy                                 R     -5.317520997162014E+02
Total Energy                               R     -5.317520997162014E+02
Post-SCF wavefunction norm                 R      1.000000000000000E+00
RMS Density                                R      4.618900599069615E-09
Job Status                                 I                1
Nuclear derivative order                   I                0
External E-field                           R   N=          35
  0.00000000E+00  0.00000000E+00  0.00000000E+00  0.00000000E+00  0.00000000E+00
  0.00000000E+00  0.00000000E+00  0.00000000E+00  0.00000000E+00  0.00000000E+00
  0.00000000E+00  0.00000000E+00  0.00000000E+00  0.00000000E+00  0.00000000E+00
  0.00000000E+00  0.00000000E+00  0.00000000E+00  0.00000000E+00  0.00000000E+00
  0.00000000E+00  0.00000000E+00  0.00000000E+00  0.00000000E+00  0.00000000E+00
  0.00000000E+00  0.00000000E+00  0.00000000E+00  0.00000000E+00  0.00000000E+00
  0.00000000E+00  0.00000000E+00  0.00000000E+00  0.00000000E+00  0.00000000E+00
IOpCl                                      I                0
IROHF                                      I                0
Alpha Orbital Energies                     R   N=         210
 -1.93002980E+01 -1.92980658E+01 -1.45686032E+01 -1.45604751E+01 -1.04581256E+01
 -1.04486911E+01 -1.04460152E+01 -1.04213782E+01 -1.03984612E+01 -1.03691475E+01
 -1.03666681E+01 -1.22307210E+00 -1.20334512E+00 -1.13565661E+00 -1.11522522E+00
 -9.97582621E-01 -9.37541910E-01 -8.61394188E-01 -8.29847190E-01 -8.03645370E-01
 -7.66451132E-01 -7.21468816E-01 -7.13933980E-01 -6.81752240E-01 -6.73789155E-01
 -6.60383891E-01 -6.10598497E-01 -6.08987046E-01 -5.96292829E-01 -5.84307957E-01
 -5.77994847E-01 -5.65141230E-01 -5.64148315E-01 -5.45302399E-01 -5.34014527E-01
 -5.10737476E-01 -4.66284315E-01 -4.42280649E-01 -4.07644785E-01 -3.90040332E-01
 -2.57745940E-01 -1.75815470E-01 -1.61363969E-01 -1.03603921E-01 -9.15003939E-02
 -7.83572486E-02 -6.78387710E-02 -4.76691144E-02 -3.26976858E-02 -1.57905482E-02