 Entering Gaussian System, Link 0=/opt/app/gaussian09/e01/g09/g09.exec
 Input=2_pp_td.gjf
 Output=2_pp_td.log
 Initial command:
 /opt/app/gaussian09/e01/g09/l1.exe "./Gau-12684.inp" -scrdir="./"
 Entering Link 1 = /opt/app/gaussian09/e01/g09/l1.exe PID=     12696.
  
 Copyright (c) 1988,1990,1992,1993,1995,1998,2003,2009,2015,
            Gaussian, Inc.  All Rights Reserved.
  
 This is part of the Gaussian(R) 09 program.  It is based on
 the Gaussian(R) 03 system (copyright 2003, Gaussian, Inc.),
 the Gaussian(R) 98 system (copyright 1998, Gaussian, Inc.),
 the Gaussian(R) 94 system (copyright 1995, Gaussian, Inc.),
 the Gaussian 92(TM) system (copyright 1992, Gaussian, Inc.),
 the Gaussian 90(TM) system (copyright 1990, Gaussian, Inc.),
 the Gaussian 88(TM) system (copyright 1988, Gaussian, Inc.),
 the Gaussian 86(TM) system (copyright 1986, Carnegie Mellon
 University), and the Gaussian 82(TM) system (copyright 1983,
 Carnegie Mellon University). Gaussian is a federally registered
 trademark of Gaussian, Inc.
  
 This software contains proprietary and confidential information,
 including trade secrets, belonging to Gaussian, Inc.
  
 This software is provided under written license and may be
 used, copied, transmitted, or stored only in accord with that
 written license.
  
 The following legend is applicable only to US Government
 contracts under FAR:
  
                    RESTRICTED RIGHTS LEGEND
  
 Use, reproduction and disclosure by the US Government is
 subject to restrictions as set forth in subparagraphs (a)
 and (c) of the Commercial Computer Software - Restricted
 Rights clause in FAR 52.227-19.
  
 Gaussian, Inc.
 340 Quinnipiac St., Bldg. 40, Wallingford CT 06492
  
  
 ---------------------------------------------------------------
 Warning -- This program may not be used in any manner that
 competes with the business of Gaussian, Inc. or will provide
 assistance to any competitor of Gaussian, Inc.  The licensee
 of this program is prohibited from giving any competitor of
 Gaussian, Inc. access to this program.  By using this program,
 the user acknowledges that Gaussian, Inc. is engaged in the
 business of creating and licensing software in the field of
 computational chemistry and represents and warrants to the
 licensee that it is not a competitor of Gaussian, Inc. and that
 it will not use this program in any manner prohibited above.
 ---------------------------------------------------------------
  

 Cite this work as:
 Gaussian 09, Revision E.01,
 M. J. Frisch, G. W. Trucks, H. B. Schlegel, G. E. Scuseria, 
 M. A. Robb, J. R. Cheeseman, G. Scalmani, V. Barone, B. Mennucci, 
 G. A. Petersson, H. Nakatsuji, M. Caricato, X. Li, H. P. Hratchian, 
 A. F. Izmaylov, J. Bloino, G. Zheng, J. L. Sonnenberg, M. Hada, 
 M. Ehara, K. Toyota, R. Fukuda, J. Hasegawa, M. Ishida, T. Nakajima, 
 Y. Honda, O. Kitao, H. Nakai, T. Vreven, J. A. Montgomery, Jr., 
 J. E. Peralta, F. Ogliaro, M. Bearpark, J. J. Heyd, E. Brothers, 
 K. N. Kudin, V. N. Staroverov, T. Keith, R. Kobayashi, J. Normand, 
 K. Raghavachari, A. Rendell, J. C. Burant, S. S. Iyengar, J. Tomasi, 
 M. Cossi, N. Rega, J. M. Millam, M. Klene, J. E. Knox, J. B. Cross, 
 V. Bakken, C. Adamo, J. Jaramillo, R. Gomperts, R. E. Stratmann, 
 O. Yazyev, A. J. Austin, R. Cammi, C. Pomelli, J. W. Ochterski, 
 R. L. Martin, K. Morokuma, V. G. Zakrzewski, G. A. Voth, 
 P. Salvador, J. J. Dannenberg, S. Dapprich, A. D. Daniels, 
 O. Farkas, J. B. Foresman, J. V. Ortiz, J. Cioslowski, 
 and D. J. Fox, Gaussian, Inc., Wallingford CT, 2013.
 
 ******************************************
 Gaussian 09:  ES64L-G09RevE.01 30-Nov-2015
                 7-Jun-2021 
 ******************************************
 %chk=2_pp_td.chk
 -------------------------------------------
 #p td(NStates=10) b3lyp/6-31g(d,p) pop=full
 -------------------------------------------
 1/38=1/1;
 2/12=2,17=6,18=5,40=1/2;
 3/5=1,6=6,7=101,11=9,16=1,25=1,30=1,74=-5/1,2,8,3;
 4//1;
 5/5=2,38=5/2;
 8/6=1,10=2,108=10/1;
 9/41=10,42=1,70=2/14;
 6/7=3/1;
 99/5=1,9=1/99;
 Leave Link    1 at Mon Jun  7 15:36:31 2021, MaxMem=           0 cpu:         0.1
 (Enter /opt/app/gaussian09/e01/g09/l101.exe)
 --
 td
 --
 Symbolic Z-matrix:
 Charge =  1 Multiplicity = 1
 C                    -0.76262  -0.3756    0. 
 H                    -0.68784  -1.46122   0. 
 C                     0.37448   0.39139  0. 
 H                     0.34741   1.4757   -0.00001 
 C                     1.63098  -0.25153   0. 
 H                     1.62879  -1.34161   0.00001 
 C                     2.8562    0.39224  0. 
 H                     2.90613   1.47824  0. 
 N                     5.25841   0.15843  0. 
 H                     6.07668  -0.43559  0. 
 H                     5.41808   1.15863  -0.00001 
 C                     4.04     -0.35106   0. 
 H                     3.99014  -1.4378    0.00001 
 N                    -2.0665    0.03487   0. 
 C                    -2.4909    1.40052   0. 
 C                    -3.08938  -0.9953   0. 
 H                    -1.65988   2.11918   0. 
 O                    -3.65105   1.7099    0. 
 H                    -4.09784  -0.5699   0. 
 O                    -2.80116  -2.16025  0. 
 
 NAtoms=     20 NQM=       20 NQMF=       0 NMMI=      0 NMMIF=      0
                NMic=       0 NMicF=      0.
                    Isotopes and Nuclear Properties:
 (Nuclear quadrupole moments (NQMom) in fm**2, nuclear magnetic moments (NMagM)
  in nuclear magnetons)

  Atom         1           2           3           4           5           6           7           8           9          10
 IAtWgt=          12           1          12           1          12           1          12           1          14           1
 AtmWgt=  12.0000000   1.0078250  12.0000000   1.0078250  12.0000000   1.0078250  12.0000000   1.0078250  14.0030740   1.0078250
 NucSpn=           0           1           0           1           0           1           0           1           2           1
 AtZEff=   0.0000000   0.0000000   0.0000000   0.0000000   0.0000000   0.0000000   0.0000000   0.0000000   0.0000000   0.0000000
 NQMom=    0.0000000   0.0000000   0.0000000   0.0000000   0.0000000   0.0000000   0.0000000   0.0000000   2.0440000   0.0000000
 NMagM=    0.0000000   2.7928460   0.0000000   2.7928460   0.0000000   2.7928460   0.0000000   2.7928460   0.4037610   2.7928460
 AtZNuc=   6.0000000   1.0000000   6.0000000   1.0000000   6.0000000   1.0000000   6.0000000   1.0000000   7.0000000   1.0000000

  Atom        11          12          13          14          15          16          17          18          19          20
 IAtWgt=           1          12           1          14          12          12           1          16           1          16
 AtmWgt=   1.0078250  12.0000000   1.0078250  14.0030740  12.0000000  12.0000000   1.0078250  15.9949146   1.0078250  15.9949146
 NucSpn=           1           0           1           2           0           0           1           0           1           0
 AtZEff=   0.0000000   0.0000000   0.0000000   0.0000000   0.0000000   0.0000000   0.0000000   0.0000000   0.0000000   0.0000000
 NQMom=    0.0000000   0.0000000   0.0000000   2.0440000   0.0000000   0.0000000   0.0000000   0.0000000   0.0000000   0.0000000
 NMagM=    2.7928460   0.0000000   2.7928460   0.4037610   0.0000000   0.0000000   2.7928460   0.0000000   2.7928460   0.0000000
 AtZNuc=   1.0000000   6.0000000   1.0000000   7.0000000   6.0000000   6.0000000   1.0000000   8.0000000   1.0000000   8.0000000
 Leave Link  101 at Mon Jun  7 15:36:31 2021, MaxMem=    33554432 cpu:         0.1
 (Enter /opt/app/gaussian09/e01/g09/l202.exe)
                          Input orientation:                          
 ---------------------------------------------------------------------
 Center     Atomic      Atomic             Coordinates (Angstroms)
 Number     Number       Type             X           Y           Z
 ---------------------------------------------------------------------
      1          6           0       -0.762617   -0.375596    0.000002
      2          1           0       -0.687845   -1.461224    0.000002
      3          6           0        0.374484    0.391393   -0.000001
      4          1           0        0.347411    1.475701   -0.000011
      5          6           0        1.630982   -0.251525    0.000004
      6          1           0        1.628785   -1.341611    0.000010
      7          6           0        2.856202    0.392240   -0.000000
      8          1           0        2.906127    1.478242   -0.000004
      9          7           0        5.258411    0.158428   -0.000002
     10          1           0        6.076678   -0.435588   -0.000001
     11          1           0        5.418077    1.158629   -0.000011
     12          6           0        4.040000   -0.351056    0.000001
     13          1           0        3.990142   -1.437802    0.000011
     14          7           0       -2.066502    0.034873    0.000001
     15          6           0       -2.490902    1.400522    0.000001
     16          6           0       -3.089378   -0.995298   -0.000001
     17          1           0       -1.659883    2.119179    0.000001
     18          8           0       -3.651045    1.709896    0.000001
     19          1           0       -4.097839   -0.569895   -0.000001
     20          8           0       -2.801161   -2.160249   -0.000004
 ---------------------------------------------------------------------
                    Distance matrix (angstroms):
                    1          2          3          4          5
     1  C    0.000000
     2  H    1.088200   0.000000
     3  C    1.371595   2.135587   0.000000
     4  H    2.158579   3.114046   1.084646   0.000000
     5  C    2.396813   2.615403   1.411429   2.151945   0.000000
     6  H    2.579146   2.319716   2.139293   3.095023   1.090088
     7  C    3.699382   3.999450   2.481718   2.732750   1.384051
     8  H    4.110523   4.642962   2.755078   2.558717   2.148974
     9  N    6.044664   6.162891   4.889479   5.084597   3.650520
    10  H    6.839558   6.841834   5.761849   6.039663   4.449504
    11  H    6.368268   6.644239   5.101616   5.080570   4.041117
    12  C    4.802680   4.856438   3.739951   4.119739   2.411073
    13  H    4.870011   4.678046   4.052029   4.664546   2.640623
    14  N    1.366967   2.034454   2.466885   2.811220   3.708560
    15  C    2.478218   3.382397   3.037891   2.839308   4.440629
    16  C    2.407871   2.446313   3.731119   4.232889   4.778598
    17  H    2.651224   3.710006   2.669063   2.107912   4.055864
    18  O    3.562625   4.340111   4.235958   4.005309   5.634447
    19  H    3.340876   3.524560   4.574467   4.893333   5.737661
    20  O    2.709362   2.225925   4.073769   4.809744   4.825673
                    6          7          8          9         10
     6  H    0.000000
     7  C    2.124334   0.000000
     8  H    3.095670   1.087149   0.000000
     9  N    3.927378   2.413560   2.697248   0.000000
    10  H    4.539232   3.325171   3.703395   1.011146   0.000000
    11  H    4.539817   2.674052   2.532202   1.012866   1.724901
    12  C    2.606752   1.397807   2.152208   1.320643   2.038432
    13  H    2.363315   2.152876   3.111013   2.038738   2.314749
    14  N    3.943331   4.935659   5.177871   7.325954   8.156758
    15  C    4.948850   5.441338   5.397588   7.848225   8.762118
    16  C    4.730856   6.105341   6.485713   8.427138   9.183128
    17  H    4.774139   4.835012   4.610775   7.190781   8.147466
    18  O    6.098222   6.639314   6.561263   9.043531   9.961511
    19  H    5.778388   7.020284   7.297287   9.384554  10.175403
    20  O    4.504952   6.206526   6.768438   8.386474   9.043809
                   11         12         13         14         15
    11  H    0.000000
    12  C    2.044076   0.000000
    13  H    2.963183   1.087889   0.000000
    14  N    7.568471   6.118685   6.233114   0.000000
    15  C    7.912677   6.761708   7.075310   1.430075   0.000000
    16  C    8.775887   7.158426   7.093336   1.451732   2.469439
    17  H    7.142841   6.212143   6.676443   2.123598   1.098663
    18  O    9.085862   7.962393   8.264124   2.305750   1.200686
    19  H    9.671631   8.140780   8.134414   2.119451   2.542595
    20  O    8.864019   7.076345   6.829621   2.314797   3.574263
                   16         17         18         19         20
    16  C    0.000000
    17  H    3.426867   0.000000
    18  O    2.762887   2.032791   0.000000
    19  H    1.094514   3.629704   2.323160   0.000000
    20  O    1.200075   4.428998   3.962364   2.051974   0.000000
 Stoichiometry    C7H9N2O2(1+)
 Framework group  C1[X(C7H9N2O2)]
 Deg. of freedom    54
 Full point group                 C1      NOp   1
 Largest Abelian subgroup         C1      NOp   1
 Largest concise Abelian subgroup C1      NOp   1
                         Standard orientation:                         
 ---------------------------------------------------------------------
 Center     Atomic      Atomic             Coordinates (Angstroms)
 Number     Number       Type             X           Y           Z
 ---------------------------------------------------------------------
      1          6           0       -0.762617    0.375596   -0.000002
      2          1           0       -0.687845    1.461224   -0.000002
      3          6           0        0.374484   -0.391393    0.000001
      4          1           0        0.347411   -1.475701    0.000011
      5          6           0        1.630982    0.251525   -0.000004
      6          1           0        1.628785    1.341611   -0.000010
      7          6           0        2.856202   -0.392240    0.000000
      8          1           0        2.906127   -1.478242    0.000004
      9          7           0        5.258411   -0.158428    0.000002
     10          1           0        6.076678    0.435588    0.000001
     11          1           0        5.418077   -1.158629    0.000011
     12          6           0        4.040000    0.351056   -0.000001
     13          1           0        3.990142    1.437802   -0.000011
     14          7           0       -2.066502   -0.034873   -0.000001
     15          6           0       -2.490902   -1.400522   -0.000001
     16          6           0       -3.089378    0.995298    0.000001
     17          1           0       -1.659883   -2.119179   -0.000001
     18          8           0       -3.651045   -1.709896   -0.000001
     19          1           0       -4.097839    0.569895    0.000001
     20          8           0       -2.801161    2.160249    0.000004
 ---------------------------------------------------------------------
 Rotational constants (GHZ):      2.7820879      0.3553677      0.3151166
 Leave Link  202 at Mon Jun  7 15:36:31 2021, MaxMem=    33554432 cpu:         0.0
 (Enter /opt/app/gaussian09/e01/g09/l301.exe)
 Standard basis: 6-31G(d,p) (6D, 7F)
 Ernie: Thresh=  0.10000D-02 Tol=  0.10000D-05 Strict=F.
 There are   210 symmetry adapted cartesian basis functions of A   symmetry.
 There are   210 symmetry adapted basis functions of A   symmetry.
   210 basis functions,   371 primitive gaussians,   210 cartesian basis functions
    40 alpha electrons       40 beta electrons
       nuclear repulsion energy       537.1978273195 Hartrees.
 IExCor=  402 DFT=T Ex+Corr=B3LYP ExCW=0 ScaHFX=  0.200000
 ScaDFX=  0.800000  0.720000  1.000000  0.810000 ScalE2=  1.000000  1.000000
 IRadAn=      0 IRanWt=     -1 IRanGd=            0 ICorTp=0 IEmpDi=  4
 NAtoms=   20 NActive=   20 NUniq=   20 SFac= 1.00D+00 NAtFMM=   60 NAOKFM=F Big=F
 Integral buffers will be    131072 words long.
 Regular integral format.
 Two-electron integral symmetry is turned on.
 Leave Link  301 at Mon Jun  7 15:36:32 2021, MaxMem=    33554432 cpu:         0.1
 (Enter /opt/app/gaussian09/e01/g09/l302.exe)
 NPDir=0 NMtPBC=     1 NCelOv=     1 NCel=       1 NClECP=     1 NCelD=      1
         NCelK=      1 NCelE2=     1 NClLst=     1 CellRange=     0.0.
 One-electron integrals computed using PRISM.
 NBasis=   210 RedAO= T EigKep=  1.57D-03  NBF=   210
 NBsUse=   210 1.00D-06 EigRej= -1.00D+00 NBFU=   210
 Precomputing XC quadrature grid using
 IXCGrd= 4 IRadAn=           0 IRanWt=          -1 IRanGd=           0 AccXCQ= 0.00D+00.
 Generated NRdTot=       0 NPtTot=           0 NUsed=           0 NTot=          32
 NSgBfM=   208   208   208   208   208 MxSgAt=    20 MxSgA2=    20.
 Leave Link  302 at Mon Jun  7 15:36:32 2021, MaxMem=    33554432 cpu:         0.4
 (Enter /opt/app/gaussian09/e01/g09/l308.exe)
 Leave Link  308 at Mon Jun  7 15:36:34 2021, MaxMem=    33554432 cpu:         0.0
 (Enter /opt/app/gaussian09/e01/g09/l303.exe)
 DipDrv:  MaxL=1.
 Leave Link  303 at Mon Jun  7 15:36:34 2021, MaxMem=    33554432 cpu:         0.0
 (Enter /opt/app/gaussian09/e01/g09/l401.exe)
 ExpMin= 1.61D-01 ExpMax= 5.48D+03 ExpMxC= 8.25D+02 IAcc=1 IRadAn=         1 AccDes= 0.00D+00
 Harris functional with IExCor=  402 and IRadAn=       1 diagonalized for initial guess.
 HarFok:  IExCor=  402 AccDes= 0.00D+00 IRadAn=         1 IDoV= 1 UseB2=F ITyADJ=14
 ICtDFT=  3500011 ScaDFX=  1.000000  1.000000  1.000000  1.000000
 FoFCou: FMM=F IPFlag=           0 FMFlag=      100000 FMFlg1=           0
         NFxFlg=           0 DoJE=T BraDBF=F KetDBF=T FulRan=T
         wScrn=  0.000000 ICntrl=     500 IOpCl=  0 I1Cent=   200000004 NGrid=           0
         NMat0=    1 NMatS0=      1 NMatT0=    0 NMatD0=    1 NMtDS0=    0 NMtDT0=    0
 Petite list used in FoFCou.
 Harris En= -531.891037977063    
 JPrj=0 DoOrth=F DoCkMO=F.
 Leave Link  401 at Mon Jun  7 15:36:36 2021, MaxMem=    33554432 cpu:         1.8
 (Enter /opt/app/gaussian09/e01/g09/l502.exe)
 Closed shell SCF:
 Using DIIS extrapolation, IDIIS=  1040.
 Integral symmetry usage will be decided dynamically.
 IVT=      153691 IEndB=      153691 NGot=    33554432 MDV=    33461692
 LenX=    33461692 LenY=    33417151
 Requested convergence on RMS density matrix=1.00D-08 within 128 cycles.
 Requested convergence on MAX density matrix=1.00D-06.
 Requested convergence on             energy=1.00D-06.
 No special actions if energy rises.
 Fock matrices will be formed incrementally for  20 cycles.
 Integral accuracy reduced to 1.0D-05 until final iterations.

 Cycle   1  Pass 0  IDiag  1:
 FoFJK:  IHMeth= 1 ICntrl=       0 DoSepK=F KAlg= 0 I1Cent=   0 FoldK=F
 IRaf= 770000000 NMat=   1 IRICut=       1 DoRegI=T DoRafI=F ISym2E= 0.
 FoFCou: FMM=F IPFlag=           0 FMFlag=      100000 FMFlg1=           0
         NFxFlg=           0 DoJE=F BraDBF=F KetDBF=F FulRan=T
         wScrn=  0.000000 ICntrl=       0 IOpCl=  0 I1Cent=           0 NGrid=           0
         NMat0=    1 NMatS0=      1 NMatT0=    0 NMatD0=    1 NMtDS0=    0 NMtDT0=    0
 Symmetry not used in FoFCou.
 E= -531.627900906633    
 DIIS: error= 4.91D-02 at cycle   1 NSaved=   1.
 NSaved= 1 IEnMin= 1 EnMin= -531.627900906633     IErMin= 1 ErrMin= 4.91D-02
 ErrMax= 4.91D-02  0.00D+00 EMaxC= 1.00D-01 BMatC= 2.84D-01 BMatP= 2.84D-01
 IDIUse=3 WtCom= 5.09D-01 WtEn= 4.91D-01
 Coeff-Com:  0.100D+01
 Coeff-En:   0.100D+01
 Coeff:      0.100D+01
 Gap=     0.123 Goal=   None    Shift=    0.000
 GapD=    0.123 DampG=1.000 DampE=0.500 DampFc=0.5000 IDamp=-1.
 Damping current iteration by 5.00D-01
 RMSDP=6.82D-03 MaxDP=3.64D-01              OVMax= 3.72D-01

 Cycle   2  Pass 0  IDiag  1:
 RMSU=  3.40D-03    CP:  9.90D-01
 E= -531.611114484629     Delta-E=        0.016786422004 Rises=F Damp=T
 DIIS: error= 3.04D-02 at cycle   2 NSaved=   2.
 NSaved= 2 IEnMin= 1 EnMin= -531.627900906633     IErMin= 2 ErrMin= 3.04D-02
 ErrMax= 3.04D-02  0.00D+00 EMaxC= 1.00D-01 BMatC= 1.14D-01 BMatP= 2.84D-01
 IDIUse=3 WtCom= 6.96D-01 WtEn= 3.04D-01
 Coeff-Com:  0.359D+00 0.641D+00
 Coeff-En:   0.524D+00 0.476D+00
 Coeff:      0.409D+00 0.591D+00
 Gap=     0.150 Goal=   None    Shift=    0.000
 RMSDP=2.10D-03 MaxDP=1.31D-01 DE= 1.68D-02 OVMax= 2.78D-01

 Cycle   3  Pass 0  IDiag  1:
 RMSU=  1.66D-03    CP:  9.78D-01  6.30D-01
 E= -531.847440584215     Delta-E=       -0.236326099586 Rises=F Damp=F
 DIIS: error= 1.15D-02 at cycle   3 NSaved=   3.
 NSaved= 3 IEnMin= 3 EnMin= -531.847440584215     IErMin= 3 ErrMin= 1.15D-02
 ErrMax= 1.15D-02  0.00D+00 EMaxC= 1.00D-01 BMatC= 2.50D-02 BMatP= 1.14D-01
 IDIUse=3 WtCom= 8.85D-01 WtEn= 1.15D-01
 Coeff-Com:  0.140D+00 0.305D+00 0.555D+00
 Coeff-En:   0.000D+00 0.000D+00 0.100D+01
 Coeff:      0.124D+00 0.270D+00 0.606D+00
 Gap=     0.137 Goal=   None    Shift=    0.000
 RMSDP=1.13D-03 MaxDP=4.09D-02 DE=-2.36D-01 OVMax= 9.82D-02

 Cycle   4  Pass 0  IDiag  1:
 RMSU=  7.67D-04    CP:  9.86D-01  6.81D-01  5.17D-01
 E= -531.866986826640     Delta-E=       -0.019546242425 Rises=F Damp=F
 DIIS: error= 6.72D-03 at cycle   4 NSaved=   4.
 NSaved= 4 IEnMin= 4 EnMin= -531.866986826640     IErMin= 4 ErrMin= 6.72D-03
 ErrMax= 6.72D-03  0.00D+00 EMaxC= 1.00D-01 BMatC= 6.05D-03 BMatP= 2.50D-02
 IDIUse=3 WtCom= 9.33D-01 WtEn= 6.72D-02
 Coeff-Com:  0.396D-01 0.598D-01 0.335D+00 0.565D+00
 Coeff-En:   0.000D+00 0.000D+00 0.204D+00 0.796D+00
 Coeff:      0.369D-01 0.558D-01 0.326D+00 0.581D+00
 Gap=     0.132 Goal=   None    Shift=    0.000
 RMSDP=5.24D-04 MaxDP=1.84D-02 DE=-1.95D-02 OVMax= 6.25D-02

 Cycle   5  Pass 0  IDiag  1:
 RMSU=  2.60D-04    CP:  9.84D-01  6.47D-01  6.82D-01  5.52D-01
 E= -531.872117244912     Delta-E=       -0.005130418272 Rises=F Damp=F
 DIIS: error= 2.70D-03 at cycle   5 NSaved=   5.
 NSaved= 5 IEnMin= 5 EnMin= -531.872117244912     IErMin= 5 ErrMin= 2.70D-03
 ErrMax= 2.70D-03  0.00D+00 EMaxC= 1.00D-01 BMatC= 1.12D-03 BMatP= 6.05D-03
 IDIUse=3 WtCom= 9.73D-01 WtEn= 2.70D-02
 Coeff-Com:  0.760D-02-0.226D-03 0.149D+00 0.384D+00 0.459D+00
 Coeff-En:   0.000D+00 0.000D+00 0.000D+00 0.165D+00 0.835D+00
 Coeff:      0.739D-02-0.220D-03 0.145D+00 0.378D+00 0.470D+00
 Gap=     0.132 Goal=   None    Shift=    0.000
 RMSDP=2.00D-04 MaxDP=7.79D-03 DE=-5.13D-03 OVMax= 2.86D-02

 Cycle   6  Pass 0  IDiag  1:
 RMSU=  7.46D-05    CP:  9.84D-01  6.50D-01  6.56D-01  6.68D-01  4.01D-01
 E= -531.873316798630     Delta-E=       -0.001199553718 Rises=F Damp=F
 DIIS: error= 8.23D-04 at cycle   6 NSaved=   6.
 NSaved= 6 IEnMin= 6 EnMin= -531.873316798630     IErMin= 6 ErrMin= 8.23D-04
 ErrMax= 8.23D-04  0.00D+00 EMaxC= 1.00D-01 BMatC= 7.26D-05 BMatP= 1.12D-03
 IDIUse=3 WtCom= 9.92D-01 WtEn= 8.23D-03
 Coeff-Com:  0.293D-02-0.404D-02 0.616D-01 0.174D+00 0.277D+00 0.488D+00
 Coeff-En:   0.000D+00 0.000D+00 0.000D+00 0.000D+00 0.144D-01 0.986D+00
 Coeff:      0.290D-02-0.400D-02 0.611D-01 0.173D+00 0.275D+00 0.492D+00
 Gap=     0.132 Goal=   None    Shift=    0.000
 RMSDP=4.97D-05 MaxDP=2.38D-03 DE=-1.20D-03 OVMax= 6.79D-03

 Cycle   7  Pass 0  IDiag  1:
 RMSU=  2.09D-05    CP:  9.84D-01  6.50D-01  6.64D-01  6.49D-01  4.88D-01
                    CP:  5.52D-01
 E= -531.873396360486     Delta-E=       -0.000079561857 Rises=F Damp=F
 DIIS: error= 1.45D-04 at cycle   7 NSaved=   7.
 NSaved= 7 IEnMin= 7 EnMin= -531.873396360486     IErMin= 7 ErrMin= 1.45D-04
 ErrMax= 1.45D-04  0.00D+00 EMaxC= 1.00D-01 BMatC= 4.86D-06 BMatP= 7.26D-05
 IDIUse=3 WtCom= 9.99D-01 WtEn= 1.45D-03
 Coeff-Com:  0.650D-03-0.253D-02 0.128D-01 0.392D-01 0.808D-01 0.263D+00
 Coeff-Com:  0.606D+00
 Coeff-En:   0.000D+00 0.000D+00 0.000D+00 0.000D+00 0.000D+00 0.000D+00
 Coeff-En:   0.100D+01
 Coeff:      0.649D-03-0.253D-02 0.128D-01 0.391D-01 0.807D-01 0.263D+00
 Coeff:      0.606D+00
 Gap=     0.132 Goal=   None    Shift=    0.000
 RMSDP=9.63D-06 MaxDP=3.76D-04 DE=-7.96D-05 OVMax= 6.57D-04

 Initial convergence to 1.0D-05 achieved.  Increase integral accuracy.
 Cycle   8  Pass 1  IDiag  1:
 E= -531.873388346231     Delta-E=        0.000008014256 Rises=F Damp=F
 DIIS: error= 4.12D-05 at cycle   1 NSaved=   1.
 NSaved= 1 IEnMin= 1 EnMin= -531.873388346231     IErMin= 1 ErrMin= 4.12D-05
 ErrMax= 4.12D-05  0.00D+00 EMaxC= 1.00D-01 BMatC= 4.92D-07 BMatP= 4.92D-07
 IDIUse=1 WtCom= 1.00D+00 WtEn= 0.00D+00
 Coeff-Com:  0.100D+01
 Coeff:      0.100D+01
 Gap=     0.132 Goal=   None    Shift=    0.000
 RMSDP=9.63D-06 MaxDP=3.76D-04 DE= 8.01D-06 OVMax= 7.69D-04

 Cycle   9  Pass 1  IDiag  1:
 RMSU=  1.05D-05    CP:  1.00D+00
 E= -531.873387433957     Delta-E=        0.000000912274 Rises=F Damp=F
 DIIS: error= 1.00D-04 at cycle   2 NSaved=   2.
 NSaved= 2 IEnMin= 1 EnMin= -531.873388346231     IErMin= 1 ErrMin= 4.12D-05
 ErrMax= 1.00D-04  0.00D+00 EMaxC= 1.00D-01 BMatC= 1.56D-06 BMatP= 4.92D-07
 IDIUse=3 WtCom= 5.00D-01 WtEn= 5.00D-01
 Coeff-Com:  0.645D+00 0.355D+00
 Coeff-En:   0.713D+00 0.287D+00
 Coeff:      0.679D+00 0.321D+00
 Gap=     0.132 Goal=   None    Shift=    0.000
 RMSDP=5.05D-06 MaxDP=2.53D-04 DE= 9.12D-07 OVMax= 4.42D-04

 Cycle  10  Pass 1  IDiag  1:
 RMSU=  3.02D-06    CP:  1.00D+00  6.16D-01
 E= -531.873388802644     Delta-E=       -0.000001368687 Rises=F Damp=F
 DIIS: error= 9.61D-06 at cycle   3 NSaved=   3.
 NSaved= 3 IEnMin= 3 EnMin= -531.873388802644     IErMin= 3 ErrMin= 9.61D-06
 ErrMax= 9.61D-06  0.00D+00 EMaxC= 1.00D-01 BMatC= 2.53D-08 BMatP= 4.92D-07
 IDIUse=1 WtCom= 1.00D+00 WtEn= 0.00D+00
 Coeff-Com:  0.305D+00 0.145D+00 0.549D+00
 Coeff:      0.305D+00 0.145D+00 0.549D+00
 Gap=     0.132 Goal=   None    Shift=    0.000
 RMSDP=9.55D-07 MaxDP=2.47D-05 DE=-1.37D-06 OVMax= 7.62D-05

 Cycle  11  Pass 1  IDiag  1:
 RMSU=  8.66D-07    CP:  1.00D+00  5.78D-01  1.00D+00
 E= -531.873388825618     Delta-E=       -0.000000022974 Rises=F Damp=F
 DIIS: error= 3.44D-06 at cycle   4 NSaved=   4.
 NSaved= 4 IEnMin= 4 EnMin= -531.873388825618     IErMin= 4 ErrMin= 3.44D-06
 ErrMax= 3.44D-06  0.00D+00 EMaxC= 1.00D-01 BMatC= 2.70D-09 BMatP= 2.53D-08
 IDIUse=1 WtCom= 1.00D+00 WtEn= 0.00D+00
 Coeff-Com:  0.292D-01 0.742D-02 0.253D+00 0.710D+00
 Coeff:      0.292D-01 0.742D-02 0.253D+00 0.710D+00
 Gap=     0.132 Goal=   None    Shift=    0.000
 RMSDP=3.07D-07 MaxDP=9.81D-06 DE=-2.30D-08 OVMax= 2.46D-05

 Cycle  12  Pass 1  IDiag  1:
 RMSU=  2.14D-07    CP:  1.00D+00  5.87D-01  1.02D+00  7.81D-01
 E= -531.873388827357     Delta-E=       -0.000000001739 Rises=F Damp=F
 DIIS: error= 2.19D-06 at cycle   5 NSaved=   5.
 NSaved= 5 IEnMin= 5 EnMin= -531.873388827357     IErMin= 5 ErrMin= 2.19D-06
 ErrMax= 2.19D-06  0.00D+00 EMaxC= 1.00D-01 BMatC= 7.95D-10 BMatP= 2.70D-09
 IDIUse=1 WtCom= 1.00D+00 WtEn= 0.00D+00
 Coeff-Com: -0.678D-02-0.681D-02 0.118D+00 0.456D+00 0.440D+00
 Coeff:     -0.678D-02-0.681D-02 0.118D+00 0.456D+00 0.440D+00
 Gap=     0.132 Goal=   None    Shift=    0.000
 RMSDP=1.36D-07 MaxDP=4.29D-06 DE=-1.74D-09 OVMax= 1.33D-05

 Cycle  13  Pass 1  IDiag  1:
 RMSU=  6.57D-08    CP:  1.00D+00  5.87D-01  1.03D+00  8.08D-01  4.58D-01
 E= -531.873388828114     Delta-E=       -0.000000000757 Rises=F Damp=F
 DIIS: error= 4.14D-07 at cycle   6 NSaved=   6.
 NSaved= 6 IEnMin= 6 EnMin= -531.873388828114     IErMin= 6 ErrMin= 4.14D-07
 ErrMax= 4.14D-07  0.00D+00 EMaxC= 1.00D-01 BMatC= 2.54D-11 BMatP= 7.95D-10
 IDIUse=1 WtCom= 1.00D+00 WtEn= 0.00D+00
 Coeff-Com: -0.490D-02-0.385D-02 0.522D-01 0.216D+00 0.244D+00 0.496D+00
 Coeff:     -0.490D-02-0.385D-02 0.522D-01 0.216D+00 0.244D+00 0.496D+00
 Gap=     0.132 Goal=   None    Shift=    0.000
 RMSDP=3.70D-08 MaxDP=1.55D-06 DE=-7.57D-10 OVMax= 5.14D-06

 Cycle  14  Pass 1  IDiag  1:
 RMSU=  2.55D-08    CP:  1.00D+00  5.88D-01  1.02D+00  8.02D-01  5.18D-01
                    CP:  6.90D-01
 E= -531.873388828143     Delta-E=       -0.000000000029 Rises=F Damp=F
 DIIS: error= 1.95D-07 at cycle   7 NSaved=   7.
 NSaved= 7 IEnMin= 7 EnMin= -531.873388828143     IErMin= 7 ErrMin= 1.95D-07
 ErrMax= 1.95D-07  0.00D+00 EMaxC= 1.00D-01 BMatC= 4.87D-12 BMatP= 2.54D-11
 IDIUse=1 WtCom= 1.00D+00 WtEn= 0.00D+00
 Coeff-Com: -0.208D-02-0.126D-02 0.144D-01 0.636D-01 0.852D-01 0.314D+00
 Coeff-Com:  0.526D+00
 Coeff:     -0.208D-02-0.126D-02 0.144D-01 0.636D-01 0.852D-01 0.314D+00
 Coeff:      0.526D+00
 Gap=     0.132 Goal=   None    Shift=    0.000
 RMSDP=1.39D-08 MaxDP=6.45D-07 DE=-2.93D-11 OVMax= 1.80D-06

 Cycle  15  Pass 1  IDiag  1:
 RMSU=  9.10D-09    CP:  1.00D+00  5.88D-01  1.03D+00  8.04D-01  5.08D-01
                    CP:  8.02D-01  7.46D-01
 E= -531.873388828150     Delta-E=       -0.000000000007 Rises=F Damp=F
 DIIS: error= 8.78D-08 at cycle   8 NSaved=   8.
 NSaved= 8 IEnMin= 8 EnMin= -531.873388828150     IErMin= 8 ErrMin= 8.78D-08
 ErrMax= 8.78D-08  0.00D+00 EMaxC= 1.00D-01 BMatC= 9.54D-13 BMatP= 4.87D-12
 IDIUse=1 WtCom= 1.00D+00 WtEn= 0.00D+00
 Coeff-Com: -0.442D-03-0.620D-04-0.720D-03 0.160D-03 0.985D-02 0.112D+00
 Coeff-Com:  0.340D+00 0.539D+00
 Coeff:     -0.442D-03-0.620D-04-0.720D-03 0.160D-03 0.985D-02 0.112D+00
 Coeff:      0.340D+00 0.539D+00
 Gap=     0.132 Goal=   None    Shift=    0.000
 RMSDP=4.62D-09 MaxDP=2.27D-07 DE=-7.05D-12 OVMax= 3.31D-07

 SCF Done:  E(RB3LYP) =  -531.873388828     A.U. after   15 cycles
            NFock= 15  Conv=0.46D-08     -V/T= 2.0095
 KE= 5.268618730602D+02 PE=-2.300425909158D+03 EE= 7.044928199500D+02
 Leave Link  502 at Mon Jun  7 15:38:13 2021, MaxMem=    33554432 cpu:        97.3
 (Enter /opt/app/gaussian09/e01/g09/l801.exe)
 DoSCS=F DFT=T ScalE2(SS,OS)=  1.000000  1.000000
 ExpMin= 1.61D-01 ExpMax= 5.48D+03 ExpMxC= 8.25D+02 IAcc=3 IRadAn=         5 AccDes= 0.00D+00
 HarFok:  IExCor=  205 AccDes= 0.00D+00 IRadAn=         5 IDoV=-2 UseB2=F ITyADJ=14
 ICtDFT= 12500011 ScaDFX=  1.000000  1.000000  1.000000  1.000000
 Largest valence mixing into a core orbital is  5.46D-05
 Largest core mixing into a valence orbital is  1.20D-05
 Range of M.O.s used for correlation:    12   210
 NBasis=   210 NAE=    40 NBE=    40 NFC=    11 NFV=     0
 NROrb=    199 NOA=    29 NOB=    29 NVA=   170 NVB=   170
 Leave Link  801 at Mon Jun  7 15:38:15 2021, MaxMem=    33554432 cpu:         0.8
 (Enter /opt/app/gaussian09/e01/g09/l914.exe)
 RHF ground state
 MDV=    33554432 DFT=T DoStab=F Mixed=T DoRPA=T DoScal=F NonHer=T
 Would need an additional           718100000 words for in-memory AO integral storage.
 Making orbital integer symmetry assigments:
 Orbital symmetries:
       Occupied  (A) (A) (A) (A) (A) (A) (A) (A) (A) (A) (A) (A)
                 (A) (A) (A) (A) (A) (A) (A) (A) (A) (A) (A) (A)
                 (A) (A) (A) (A) (A) (A) (A) (A) (A) (A) (A) (A)
                 (A) (A) (A) (A)
       Virtual   (A) (A) (A) (A) (A) (A) (A) (A) (A) (A) (A) (A)
                 (A) (A) (A) (A) (A) (A) (A) (A) (A) (A) (A) (A)
                 (A) (A) (A) (A) (A) (A) (A) (A) (A) (A) (A) (A)
                 (A) (A) (A) (A) (A) (A) (A) (A) (A) (A) (A) (A)
                 (A) (A) (A) (A) (A) (A) (A) (A) (A) (A) (A) (A)
                 (A) (A) (A) (A) (A) (A) (A) (A) (A) (A) (A) (A)
                 (A) (A) (A) (A) (A) (A) (A) (A) (A) (A) (A) (A)
                 (A) (A) (A) (A) (A) (A) (A) (A) (A) (A) (A) (A)
                 (A) (A) (A) (A) (A) (A) (A) (A) (A) (A) (A) (A)
                 (A) (A) (A) (A) (A) (A) (A) (A) (A) (A) (A) (A)
                 (A) (A) (A) (A) (A) (A) (A) (A) (A) (A) (A) (A)
                 (A) (A) (A) (A) (A) (A) (A) (A) (A) (A) (A) (A)
                 (A) (A) (A) (A) (A) (A) (A) (A) (A) (A) (A) (A)
                 (A) (A) (A) (A) (A) (A) (A) (A) (A) (A) (A) (A)
                 (A) (A)
    40 initial guesses have been made.
 Convergence on wavefunction:    0.001000000000000
 Davidson Disk Diagonalization:  ConvIn= 1.00D-03 SkipCon=T Conv= 1.00D-03.
 Max sub-space:   200 roots to seek:    40 dimension of matrix:         9860
 Iteration     1 Dimension    40 NMult     0 NNew     40
 CISAX will form    40 AO SS matrices at one time.
 NMat=    40 NSing=    40 JSym2X= 0.
 FoFJK:  IHMeth= 1 ICntrl=       0 DoSepK=F KAlg= 0 I1Cent=   0 FoldK=F
 IRaf=         0 NMat=  80 IRICut=     100 DoRegI=T DoRafI=T ISym2E= 0.
 FoFCou: FMM=F IPFlag=           0 FMFlag=      100000 FMFlg1=           0
         NFxFlg=           0 DoJE=F BraDBF=F KetDBF=F FulRan=T
         wScrn=  0.000000 ICntrl=       0 IOpCl=  0 I1Cent=           0 NGrid=           0
         NMat0=   80 NMatS0=     40 NMatT0=    0 NMatD0=   80 NMtDS0=    0 NMtDT0=    0
 Symmetry not used in FoFCou.
 New state      1 was old state      2
 New state      2 was old state      3
 New state      3 was old state      1
 New state      4 was old state      7
 New state      6 was old state     10
 New state      7 was old state      4
 New state     10 was old state     14
 Excitation Energies [eV] at current iteration:
 Root      1 :     3.308220409223129
 Root      2 :     4.208177139886921
 Root      3 :     4.323784463291766
 Root      4 :     4.833979359825651
 Root      5 :     5.442109378581084
 Root      6 :     5.456861509271688
 Root      7 :     5.761715267570679
 Root      8 :     6.062580975742623
 Root      9 :     6.542271643232050
 Root     10 :     6.654570517005232
 Root     11 :     6.791601943128712
 Root     12 :     6.926194964783963
 Root     13 :     7.236512401252368
 Root     14 :     7.301877452828562
 Root     15 :     7.386477378326288
 Root     16 :     7.391255066540069
 Root     17 :     7.427975236431638
 Root     18 :     7.563468657178660
 Root     19 :     7.805273177779475
 Root     20 :     7.824924263953352
 Root     21 :     8.075775226057726
 Root     22 :     8.248792448828370
 Root     23 :     8.262017870156676
 Root     24 :     8.271611349623116
 Root     25 :     8.343313178585420
 Root     26 :     8.418070943691591
 Root     27 :     8.426479865263952
 Root     28 :     8.463818425785941
 Root     29 :     8.499561508074992
 Root     30 :     8.549503171264696
 Root     31 :     8.797040888142309
 Root     32 :     8.994454070342453
 Root     33 :     9.185233695804511
 Root     34 :     9.216802026349836
 Root     35 :     9.301732732745986
 Root     36 :     9.399536461640928
 Root     37 :     9.628891328792575
 Root     38 :     9.715163759034205
 Root     39 :    10.215806645944000
 Root     40 :    11.974449116082110
 Iteration     2 Dimension    60 NMult    40 NNew     20
 CISAX will form    20 AO SS matrices at one time.
 NMat=    20 NSing=    20 JSym2X= 0.
 Root      1 not converged, maximum delta is    0.003691987421608
 New state      2 was old state      3
 Root      2 not converged, maximum delta is    0.056360884784837
 New state      3 was old state      2
 Root      3 not converged, maximum delta is    0.023840244441525
 Root      4 not converged, maximum delta is    0.045479409527186
 Root      5 not converged, maximum delta is    0.130668214335351
 Root      6 not converged, maximum delta is    0.012747246001455
 Root      7 not converged, maximum delta is    0.163189487715936
 Root      8 not converged, maximum delta is    0.009344368439579
 Root      9 not converged, maximum delta is    0.108568658631452
 Root     10 not converged, maximum delta is    0.033815920180823
 Excitation Energies [eV] at current iteration:
 Root      1 :     3.300588730295932   Change is   -0.007631678927197
 Root      2 :     3.870299381431111   Change is   -0.453485081860655
 Root      3 :     4.183162560260059   Change is   -0.025014579626861
 Root      4 :     4.787967823928035   Change is   -0.046011535897616
 Root      5 :     5.259553884213143   Change is   -0.182555494367942
 Root      6 :     5.415942734927319   Change is   -0.040918774344369
 Root      7 :     5.419794796185221   Change is   -0.341920471385457
 Root      8 :     6.054268218553045   Change is   -0.008312757189579
 Root      9 :     6.124560601515999   Change is   -0.417711041716051
 Root     10 :     6.615489249150573   Change is   -0.039081267854659
 Iteration     3 Dimension    80 NMult    60 NNew     20
 CISAX will form    20 AO SS matrices at one time.
 NMat=    20 NSing=    20 JSym2X= 0.
 Root      1 has converged.
 Root      2 not converged, maximum delta is    0.005263351660781
 Root      3 not converged, maximum delta is    0.001071169472747
 Root      4 not converged, maximum delta is    0.002568203695549
 Root      5 not converged, maximum delta is    0.005741472120509
 New state      6 was old state      7
 Root      6 not converged, maximum delta is    0.023434179932080
 New state      7 was old state      6
 Root      7 not converged, maximum delta is    0.002742072553644
 Root      8 not converged, maximum delta is    0.001039563012046
 Root      9 not converged, maximum delta is    0.098610113025492
 Root     10 not converged, maximum delta is    0.001541602842943
 Excitation Energies [eV] at current iteration:
 Root      1 :     3.300447740100044   Change is   -0.000140990195888
 Root      2 :     3.848739487206793   Change is   -0.021559894224317
 Root      3 :     4.182490299489065   Change is   -0.000672260770994
 Root      4 :     4.786929146126580   Change is   -0.001038677801455
 Root      5 :     5.253840345393021   Change is   -0.005713538820122
 Root      6 :     5.405984625646546   Change is   -0.013810170538675
 Root      7 :     5.414578868028855   Change is   -0.001363866898464
 Root      8 :     6.054051693112397   Change is   -0.000216525440647
 Root      9 :     6.069733731177325   Change is   -0.054826870338673
 Root     10 :     6.614462170172057   Change is   -0.001027078978516
 Iteration     4 Dimension    98 NMult    80 NNew     18
 CISAX will form    18 AO SS matrices at one time.
 NMat=    18 NSing=    18 JSym2X= 0.
 Root      1 has converged.
 Root      2 not converged, maximum delta is    0.001231827286508
 Root      3 has converged.
 Root      4 has converged.
 Root      5 not converged, maximum delta is    0.001323502631252
 Root      6 not converged, maximum delta is    0.002525759205493
 Root      7 has converged.
 Root      8 has converged.
 Root      9 not converged, maximum delta is    0.025763187661725
 No map to state     10
 Excitation Energies [eV] at current iteration:
 Root      1 :     3.300444583343131   Change is   -0.000003156756913
 Root      2 :     3.847867934386072   Change is   -0.000871552820721
 Root      3 :     4.182471595058106   Change is   -0.000018704430960
 Root      4 :     4.786895070116612   Change is   -0.000034076009967
 Root      5 :     5.253434255609921   Change is   -0.000406089783100
 Root      6 :     5.404880403875172   Change is   -0.001104221771374
 Root      7 :     5.414501646464591   Change is   -0.000077221564264
 Root      8 :     6.054041041423687   Change is   -0.000010651688710
 Root      9 :     6.062512975262378   Change is   -0.007220755914947
 Root     10 :     6.596395349167156
 Iteration     5 Dimension   108 NMult    98 NNew     10
 CISAX will form    10 AO SS matrices at one time.
 NMat=    10 NSing=    10 JSym2X= 0.
 Root      1 has converged.
 Root      2 has converged.
 Root      3 has converged.
 Root      4 has converged.
 Root      5 has converged.
 Root      6 has converged.
 Root      7 has converged.
 Root      8 has converged.
 Root      9 not converged, maximum delta is    0.002148801884454
 Root     10 not converged, maximum delta is    0.015762448227063
 Excitation Energies [eV] at current iteration:
 Root      1 :     3.300444583341786   Change is   -0.000000000001345
 Root      2 :     3.847832972441037   Change is   -0.000034961945036
 Root      3 :     4.182471595055648   Change is   -0.000000000002458
 Root      4 :     4.786895070114963   Change is   -0.000000000001649
 Root      5 :     5.253413264198160   Change is   -0.000020991411761
 Root      6 :     5.404835160646330   Change is   -0.000045243228842
 Root      7 :     5.414501646445157   Change is   -0.000000000019435
 Root      8 :     6.054041041419993   Change is   -0.000000000003694
 Root      9 :     6.062127869441028   Change is   -0.000385105821351
 Root     10 :     6.566145625205008   Change is   -0.030249723962148
 Iteration     6 Dimension   112 NMult   108 NNew      4
 CISAX will form     4 AO SS matrices at one time.
 NMat=     4 NSing=     4 JSym2X= 0.
 Root      1 has converged.
 Root      2 has converged.
 Root      3 has converged.
 Root      4 has converged.
 Root      5 has converged.
 Root      6 has converged.
 Root      7 has converged.
 Root      8 has converged.
 Root      9 has converged.
 Root     10 not converged, maximum delta is    0.001893480259236
 Excitation Energies [eV] at current iteration:
 Root      1 :     3.300444583341487   Change is   -0.000000000000299
 Root      2 :     3.847832871469146   Change is   -0.000000100971890
 Root      3 :     4.182471595054921   Change is   -0.000000000000727
 Root      4 :     4.786895070112869   Change is   -0.000000000002095
 Root      5 :     5.253413241196219   Change is   -0.000000023001942
 Root      6 :     5.404833821084131   Change is   -0.000001339562198
 Root      7 :     5.414501646441832   Change is   -0.000000000003325
 Root      8 :     6.054041041417536   Change is   -0.000000000002458
 Root      9 :     6.062104033459096   Change is   -0.000023835981932
 Root     10 :     6.564639673152149   Change is   -0.001505952052860
 Iteration     7 Dimension   114 NMult   112 NNew      2
 CISAX will form     2 AO SS matrices at one time.
 NMat=     2 NSing=     2 JSym2X= 0.
 Root      1 has converged.
 Root      2 has converged.
 Root      3 has converged.
 Root      4 has converged.
 Root      5 has converged.
 Root      6 has converged.
 Root      7 has converged.
 Root      8 has converged.
 Root      9 has converged.
 Root     10 has converged.
 Excitation Energies [eV] at current iteration:
 Root      1 :     3.300444583341263   Change is   -0.000000000000224
 Root      2 :     3.847832870529316   Change is   -0.000000000939830
 Root      3 :     4.182471595054371   Change is   -0.000000000000551
 Root      4 :     4.786895070112611   Change is   -0.000000000000258
 Root      5 :     5.253413227779673   Change is   -0.000000013416546
 Root      6 :     5.404833795489736   Change is   -0.000000025594395
 Root      7 :     5.414501646441225   Change is   -0.000000000000607
 Root      8 :     6.054041041415349   Change is   -0.000000000002186
 Root      9 :     6.062103440529413   Change is   -0.000000592929682
 Root     10 :     6.564539365102804   Change is   -0.000100308049345
 Convergence achieved on expansion vectors.
 ***********************************************************************
 Excited states from <AA,BB:AA,BB> singles matrix:
 ***********************************************************************
 
 1PDM for each excited state written to RWF  633
 Ground to excited state transition densities written to RWF  633
 Ground to excited state transition electric dipole moments (Au):
       state          X           Y           Z        Dip. S.      Osc.
         1        -0.0000     -0.0000     -0.0010      0.0000      0.0000
         2        -3.5505      0.0286     -0.0000     12.6070      1.1885
         3         0.0000     -0.0000     -0.0582      0.0034      0.0003
         4         0.0000      0.0000      0.0843      0.0071      0.0008
         5        -0.1635     -0.3572     -0.0000      0.1543      0.0199
         6        -0.5591      0.5253     -0.0000      0.5886      0.0779
         7        -0.0001      0.0001      0.0077      0.0001      0.0000
         8         0.0000      0.0000     -0.0055      0.0000      0.0000
         9         0.1554      0.2588      0.0000      0.0911      0.0135
        10         0.1755      0.0124      0.0000      0.0310      0.0050
 Ground to excited state transition velocity dipole moments (Au):
       state          X           Y           Z        Dip. S.      Osc.
         1         0.0000      0.0000      0.0034      0.0000      0.0001
         2         0.4831     -0.0065     -0.0000      0.2334      1.1003
         3        -0.0000     -0.0000      0.0043      0.0000      0.0001
         4        -0.0000     -0.0000     -0.0101      0.0001      0.0004
         5         0.0419      0.0752      0.0000      0.0074      0.0256
         6         0.1010     -0.1011      0.0000      0.0204      0.0685
         7         0.0000     -0.0000     -0.0031      0.0000      0.0000
         8        -0.0000     -0.0000      0.0075      0.0001      0.0002
         9        -0.0263     -0.0582     -0.0000      0.0041      0.0122
        10        -0.0377     -0.0008     -0.0000      0.0014      0.0039
 Ground to excited state transition magnetic dipole moments (Au):
       state          X           Y           Z
         1         0.2298      0.3026      0.0000
         2        -0.0000     -0.0000     -0.0290
         3        -0.2533      0.1548      0.0000
         4         0.4247     -0.3654     -0.0000
         5        -0.0000     -0.0000     -0.5739
         6         0.0001      0.0001      0.0698
         7        -0.6609     -0.8546      0.0000
         8        -0.1439     -0.1123      0.0000
         9         0.0000      0.0000      0.0790
        10        -0.0000      0.0000      0.0587
 Ground to excited state transition velocity quadrupole moments (Au):
       state          XX          YY          ZZ          XY          XZ          YZ
         1         0.0000     -0.0000      0.0000      0.0000     -0.0232      0.0163
         2         1.9747     -0.2361      0.0137     -0.0262     -0.0000     -0.0000
         3        -0.0000      0.0000     -0.0000      0.0000     -0.0241     -0.0016
         4        -0.0000      0.0000     -0.0000     -0.0000      0.0775      0.0103
         5         0.2132      0.0267      0.0020     -0.7014      0.0000     -0.0000
         6         1.6247      0.0534     -0.0293      0.2253     -0.0000      0.0000
         7         0.0002      0.0000     -0.0000      0.0000      0.0484     -0.0628
         8        -0.0002     -0.0000      0.0000     -0.0000     -0.0361     -0.0136
         9        -3.0035     -0.2760      0.0468     -0.0427      0.0000      0.0000
        10        -2.4557     -0.0241      0.0177      0.1412      0.0000     -0.0000
 <0|del|b> * <b|rxdel|0> + <0|del|b> * <b|delr+rdel|0>
 Rotatory Strengths (R) in cgs (10**-40 erg-esu-cm/Gauss)
       state          XX          YY          ZZ    R(velocity)    E-M Angle
         1         0.0000      0.0002      0.0002      0.0001       90.00
         2        -0.0000     -0.0017     -0.0000     -0.0006       90.00
         3         0.0000      0.0023      0.0022      0.0015       90.00
         4         0.0001     -0.0011     -0.0010     -0.0007       90.00
         5        -0.0023     -0.0006     -0.0019     -0.0016       90.00
         6        -0.0158      0.0124     -0.0039     -0.0024       90.00
         7         0.0173     -0.0123      0.0054      0.0035       90.00
         8         0.0006      0.0007      0.0014      0.0009       90.00
         9        -0.0003     -0.0005     -0.0013     -0.0007       90.00
        10        -0.0001      0.0004      0.0002      0.0002       90.00
 1/2[<0|r|b>*<b|rxdel|0> + (<0|rxdel|b>*<b|r|0>)*]
 Rotatory Strengths (R) in cgs (10**-40 erg-esu-cm/Gauss)
       state          XX          YY          ZZ     R(length)
         1         0.0001      0.0000      0.0000      0.0000
         2        -0.0019      0.0000     -0.0000     -0.0006
         3         0.0052      0.0001      0.0001      0.0018
         4        -0.0013      0.0001      0.0001     -0.0004
         5        -0.0010     -0.0024     -0.0006     -0.0013
         6         0.0256     -0.0317      0.0002     -0.0020
         7        -0.0263      0.0342     -0.0001      0.0026
         8         0.0012      0.0014      0.0000      0.0009
         9        -0.0011     -0.0012     -0.0001     -0.0008
        10         0.0006     -0.0000     -0.0001      0.0002
  1/2[<0|del|b>*<b|r|0> + (<0|r|b>*<b|del|0>)*] (Au)
       state          X           Y           Z        Dip. S.   Osc.(frdel)
         1        -0.0000     -0.0000     -0.0000      0.0000      0.0000
         2        -1.7151     -0.0002      0.0000      1.7153      1.1435
         3        -0.0000      0.0000     -0.0002      0.0002      0.0002
         4        -0.0000     -0.0000     -0.0009      0.0009      0.0006
         5        -0.0069     -0.0269     -0.0000      0.0337      0.0225
         6        -0.0565     -0.0531     -0.0000      0.1096      0.0730
         7        -0.0000     -0.0000     -0.0000      0.0000      0.0000
         8        -0.0000     -0.0000     -0.0000      0.0000      0.0000
         9        -0.0041     -0.0151     -0.0000      0.0192      0.0128
        10        -0.0066     -0.0000     -0.0000      0.0066      0.0044

 Excitation energies and oscillator strengths:
 
 Excited State   1:      Singlet-A      3.3004 eV  375.66 nm  f=0.0000  <S**2>=0.000
      39 -> 41         0.69887
 This state for optimization and/or second-order correction.
 Total Energy, E(TD-HF/TD-KS) =  -531.752099716    
 Copying the excited state density for this state as the 1-particle RhoCI density.
 
 Excited State   2:      Singlet-A      3.8478 eV  322.22 nm  f=1.1885  <S**2>=0.000
      40 -> 41         0.70877
      40 <- 41        -0.12743
 
 Excited State   3:      Singlet-A      4.1825 eV  296.44 nm  f=0.0003  <S**2>=0.000
      38 -> 41         0.65265
      39 -> 42        -0.24255
 
 Excited State   4:      Singlet-A      4.7869 eV  259.01 nm  f=0.0008  <S**2>=0.000
      38 -> 41         0.26106
      39 -> 42         0.63818
      39 -> 43        -0.10177
 
 Excited State   5:      Singlet-A      5.2534 eV  236.01 nm  f=0.0199  <S**2>=0.000
      37 -> 41         0.27292
      40 -> 42         0.64512
 
 Excited State   6:      Singlet-A      5.4048 eV  229.40 nm  f=0.0779  <S**2>=0.000
      37 -> 41         0.56274
      40 -> 42        -0.27142
      40 -> 43         0.31728
 
 Excited State   7:      Singlet-A      5.4145 eV  228.99 nm  f=0.0000  <S**2>=0.000
      38 -> 42         0.50466
      38 -> 43        -0.10796
      39 -> 41         0.10154
      39 -> 43        -0.43229
      39 -> 44        -0.15817
 
 Excited State   8:      Singlet-A      6.0540 eV  204.80 nm  f=0.0000  <S**2>=0.000
      38 -> 42         0.45280
      39 -> 42         0.12711
      39 -> 43         0.52355
 
 Excited State   9:      Singlet-A      6.0621 eV  204.52 nm  f=0.0135  <S**2>=0.000
      36 -> 41        -0.30478
      37 -> 41        -0.27483
      40 -> 43         0.56279
 
 Excited State  10:      Singlet-A      6.5645 eV  188.87 nm  f=0.0050  <S**2>=0.000
      36 -> 41         0.61066
      37 -> 41        -0.14156
      40 -> 43         0.25135
      40 -> 44         0.12985
 SavETr:  write IOETrn=   770 NScale= 10 NData=  16 NLR=1 NState=   10 LETran=     190.
 Leave Link  914 at Mon Jun  7 15:44:44 2021, MaxMem=    33554432 cpu:       387.7
 (Enter /opt/app/gaussian09/e01/g09/l601.exe)
 Copying SCF densities to generalized density rwf, IOpCl= 0 IROHF=0.

 **********************************************************************

            Population analysis using the SCF density.

 **********************************************************************

 Orbital symmetries:
       Occupied  (A) (A) (A) (A) (A) (A) (A) (A) (A) (A) (A) (A)
                 (A) (A) (A) (A) (A) (A) (A) (A) (A) (A) (A) (A)
                 (A) (A) (A) (A) (A) (A) (A) (A) (A) (A) (A) (A)
                 (A) (A) (A) (A)
       Virtual   (A) (A) (A) (A) (A) (A) (A) (A) (A) (A) (A) (A)
                 (A) (A) (A) (A) (A) (A) (A) (A) (A) (A) (A) (A)
                 (A) (A) (A) (A) (A) (A) (A) (A) (A) (A) (A) (A)
                 (A) (A) (A) (A) (A) (A) (A) (A) (A) (A) (A) (A)
                 (A) (A) (A) (A) (A) (A) (A) (A) (A) (A) (A) (A)
                 (A) (A) (A) (A) (A) (A) (A) (A) (A) (A) (A) (A)
                 (A) (A) (A) (A) (A) (A) (A) (A) (A) (A) (A) (A)
                 (A) (A) (A) (A) (A) (A) (A) (A) (A) (A) (A) (A)
                 (A) (A) (A) (A) (A) (A) (A) (A) (A) (A) (A) (A)
                 (A) (A) (A) (A) (A) (A) (A) (A) (A) (A) (A) (A)
                 (A) (A) (A) (A) (A) (A) (A) (A) (A) (A) (A) (A)
                 (A) (A) (A) (A) (A) (A) (A) (A) (A) (A) (A) (A)
                 (A) (A) (A) (A) (A) (A) (A) (A) (A) (A) (A) (A)
                 (A) (A) (A) (A) (A) (A) (A) (A) (A) (A) (A) (A)
                 (A) (A)
 The electronic state is 1-A.
 Alpha  occ. eigenvalues --  -19.30030 -19.29807 -14.56860 -14.56048 -10.45813
 Alpha  occ. eigenvalues --  -10.44869 -10.44602 -10.42138 -10.39846 -10.36915
 Alpha  occ. eigenvalues --  -10.36667  -1.22307  -1.20335  -1.13566  -1.11523
 Alpha  occ. eigenvalues --   -0.99758  -0.93754  -0.86139  -0.82985  -0.80365
 Alpha  occ. eigenvalues --   -0.76645  -0.72147  -0.71393  -0.68175  -0.67379
 Alpha  occ. eigenvalues --   -0.66038  -0.61060  -0.60899  -0.59629  -0.58431
 Alpha  occ. eigenvalues --   -0.57799  -0.56514  -0.56415  -0.54530  -0.53401
 Alpha  occ. eigenvalues --   -0.51074  -0.46628  -0.44228  -0.40764  -0.39004
 Alpha virt. eigenvalues --   -0.25775  -0.17582  -0.16136  -0.10360  -0.09150
 Alpha virt. eigenvalues --   -0.07836  -0.06784  -0.04767  -0.03270  -0.01579
 Alpha virt. eigenvalues --    0.00124   0.00916   0.03452   0.03859   0.07231
 Alpha virt. eigenvalues --    0.09623   0.12431   0.13071   0.15411   0.17145
 Alpha virt. eigenvalues --    0.20111   0.21197   0.23632   0.26801   0.32162
 Alpha virt. eigenvalues --    0.33797   0.34888   0.35027   0.37406   0.39544
 Alpha virt. eigenvalues --    0.39601   0.40833   0.42133   0.43773   0.44115
 Alpha virt. eigenvalues --    0.46254   0.47693   0.47884   0.51950   0.53638
 Alpha virt. eigenvalues --    0.53720   0.54040   0.56244   0.61709   0.63968
 Alpha virt. eigenvalues --    0.65230   0.65533   0.66081   0.67238   0.68853
 Alpha virt. eigenvalues --    0.68980   0.69505   0.70041   0.70315   0.74466
 Alpha virt. eigenvalues --    0.76236   0.78362   0.82313   0.83728   0.85079
 Alpha virt. eigenvalues --    0.85944   0.86815   0.87741   0.91765   0.95537
 Alpha virt. eigenvalues --    0.97269   1.01501   1.06965   1.08209   1.10483
 Alpha virt. eigenvalues --    1.10501   1.11332   1.13749   1.14832   1.16613
 Alpha virt. eigenvalues --    1.19263   1.21318   1.21877   1.25928   1.26837
 Alpha virt. eigenvalues --    1.31004   1.31594   1.32711   1.33744   1.39599
 Alpha virt. eigenvalues --    1.40634   1.48113   1.55309   1.57795   1.61354
 Alpha virt. eigenvalues --    1.63587   1.64510   1.64534   1.65990   1.67247
 Alpha virt. eigenvalues --    1.68884   1.70154   1.74623   1.75304   1.78153
 Alpha virt. eigenvalues --    1.78432   1.81687   1.84940   1.89144   1.90106
 Alpha virt. eigenvalues --    1.90816   1.93107   1.94314   1.94549   1.95644
 Alpha virt. eigenvalues --    1.98749   2.00221   2.02852   2.03796   2.05297
 Alpha virt. eigenvalues --    2.10809   2.16055   2.17091   2.23316   2.23965
 Alpha virt. eigenvalues --    2.25504   2.27576   2.28337   2.32121   2.33272
 Alpha virt. eigenvalues --    2.34129   2.35277   2.36224   2.41210   2.46572
 Alpha virt. eigenvalues --    2.46745   2.47105   2.50416   2.52183   2.52718
 Alpha virt. eigenvalues --    2.54102   2.57483   2.57613   2.58651   2.62690
 Alpha virt. eigenvalues --    2.68988   2.71859   2.74077   2.76505   2.80323
 Alpha virt. eigenvalues --    2.81859   2.82428   2.84059   2.96935   3.00266
 Alpha virt. eigenvalues --    3.07174   3.18700   3.22247   3.26548   3.32436
 Alpha virt. eigenvalues --    3.39677   3.43662   3.48545   3.55620   3.74329
 Alpha virt. eigenvalues --    3.80135   3.83832   3.95125   3.97447   4.00876
 Alpha virt. eigenvalues --    4.10680   4.23536   4.29707   4.37870   4.54201
     Molecular Orbital Coefficients:
                           1         2         3         4         5
                           O         O         O         O         O
     Eigenvalues --   -19.30030 -19.29807 -14.56860 -14.56048 -10.45813
   1 1   C  1S          0.00003  -0.00003   0.00000   0.00004  -0.00026
   2        2S          0.00010  -0.00009   0.00000   0.00022  -0.00045
   3        2PX        -0.00007   0.00002  -0.00000  -0.00031   0.00015
   4        2PY        -0.00009   0.00001   0.00000  -0.00008   0.00022
   5        2PZ         0.00000   0.00000  -0.00000   0.00000  -0.00000
   6        3S          0.00011   0.00033  -0.00007  -0.00032   0.00097
   7        3PX        -0.00036   0.00086  -0.00003  -0.00002   0.00163
   8        3PY         0.00022   0.00052   0.00002  -0.00007  -0.00228
   9        3PZ         0.00000  -0.00000  -0.00000   0.00000  -0.00000
  10        4XX         0.00009  -0.00009  -0.00000   0.00011   0.00001
  11        4YY         0.00004  -0.00001  -0.00000   0.00009  -0.00010
  12        4ZZ         0.00006  -0.00004   0.00000  -0.00002  -0.00021
  13        4XY        -0.00000  -0.00006   0.00000   0.00002   0.00004
  14        4XZ        -0.00000   0.00000  -0.00000  -0.00000   0.00000
  15        4YZ        -0.00000   0.00000   0.00000  -0.00000  -0.00000
  16 2   H  1S         -0.00003   0.00003   0.00000  -0.00005   0.00018
  17        2S         -0.00011  -0.00076   0.00000   0.00005   0.00107
  18        3PX         0.00001   0.00005   0.00000   0.00006  -0.00004
  19        3PY         0.00001   0.00003  -0.00000   0.00006  -0.00004
  20        3PZ        -0.00000  -0.00000   0.00000  -0.00000  -0.00000
  21 3   C  1S         -0.00001   0.00001  -0.00000  -0.00000  -0.00000
  22        2S         -0.00007   0.00006  -0.00001   0.00005   0.00016
  23        2PX        -0.00007   0.00001   0.00001   0.00000   0.00012
  24        2PY        -0.00005   0.00001  -0.00000  -0.00001   0.00008
  25        2PZ        -0.00000  -0.00000  -0.00000   0.00000  -0.00000
  26        3S          0.00129  -0.00080   0.00012   0.00010  -0.00322
  27        3PX         0.00090  -0.00021   0.00000   0.00024   0.00016
  28        3PY         0.00054  -0.00049   0.00004   0.00015  -0.00168
  29        3PZ        -0.00000   0.00000  -0.00000  -0.00000   0.00000
  30        4XX         0.00005   0.00000   0.00001  -0.00008  -0.00014
  31        4YY        -0.00001   0.00001  -0.00000   0.00001   0.00001
  32        4ZZ         0.00000   0.00003  -0.00000  -0.00000  -0.00001
  33        4XY         0.00006   0.00000   0.00000   0.00000  -0.00004
  34        4XZ        -0.00000   0.00000  -0.00000  -0.00000   0.00000
  35        4YZ        -0.00000   0.00000  -0.00000  -0.00000   0.00000
  36 4   H  1S          0.00006  -0.00003   0.00000   0.00001  -0.00004
  37        2S         -0.00004  -0.00009  -0.00001   0.00007  -0.00068
  38        3PX        -0.00002  -0.00000   0.00000  -0.00002   0.00003
  39        3PY        -0.00001   0.00000  -0.00000  -0.00000  -0.00001
  40        3PZ         0.00000   0.00000   0.00000   0.00000   0.00000
  41 5   C  1S          0.00002   0.00000   0.00000   0.00000  -0.00003
  42        2S          0.00010  -0.00001   0.00001   0.00001  -0.00012
  43        2PX         0.00001  -0.00002  -0.00000   0.00001  -0.00001
  44        2PY        -0.00000   0.00001  -0.00001  -0.00001  -0.00002
  45        2PZ         0.00000  -0.00000   0.00000   0.00000   0.00000
  46        3S         -0.00139   0.00049  -0.00022  -0.00035   0.00146
  47        3PX         0.00061  -0.00012  -0.00002  -0.00005  -0.00118
  48        3PY         0.00053  -0.00035   0.00005   0.00013  -0.00009
  49        3PZ        -0.00000   0.00000  -0.00000  -0.00000   0.00000
  50        4XX        -0.00004   0.00002  -0.00000  -0.00001   0.00006
  51        4YY         0.00001  -0.00001   0.00001   0.00001  -0.00001
  52        4ZZ         0.00004   0.00001  -0.00000  -0.00000  -0.00004
  53        4XY        -0.00003   0.00000  -0.00002   0.00002   0.00003
  54        4XZ         0.00000  -0.00000   0.00000  -0.00000  -0.00000
  55        4YZ         0.00000   0.00000  -0.00000  -0.00000  -0.00000
  56 6   H  1S         -0.00000   0.00000  -0.00000  -0.00001  -0.00002
  57        2S         -0.00006   0.00019  -0.00001  -0.00002  -0.00024
  58        3PX        -0.00002   0.00000  -0.00000   0.00000   0.00005
  59        3PY        -0.00000  -0.00001   0.00000   0.00000   0.00001
  60        3PZ         0.00000   0.00000   0.00000  -0.00000  -0.00000
  61 7   C  1S         -0.00000   0.00000  -0.00000  -0.00000   0.00000
  62        2S         -0.00002   0.00001   0.00005  -0.00002   0.00001
  63        2PX        -0.00001   0.00000  -0.00001  -0.00001  -0.00002
  64        2PY         0.00000  -0.00001  -0.00001  -0.00000  -0.00001
  65        2PZ         0.00000   0.00000  -0.00000   0.00000   0.00000
  66        3S          0.00026  -0.00010   0.00005   0.00024   0.00020
  67        3PX        -0.00019   0.00025  -0.00015  -0.00005   0.00015
  68        3PY        -0.00000   0.00007   0.00016   0.00008   0.00026
  69        3PZ         0.00000  -0.00000  -0.00000  -0.00000  -0.00000
  70        4XX         0.00001  -0.00001  -0.00009   0.00001  -0.00000
  71        4YY        -0.00000   0.00000   0.00001  -0.00000  -0.00000
  72        4ZZ        -0.00000   0.00000  -0.00001  -0.00000   0.00001
  73        4XY         0.00000   0.00000   0.00001  -0.00000  -0.00000
  74        4XZ        -0.00000   0.00000  -0.00000   0.00000   0.00000
  75        4YZ         0.00000  -0.00000  -0.00000  -0.00000  -0.00000
  76 8   H  1S         -0.00001   0.00001   0.00001   0.00000   0.00002
  77        2S         -0.00003   0.00003   0.00010   0.00001   0.00014
  78        3PX         0.00001  -0.00001   0.00002   0.00000  -0.00001
  79        3PY        -0.00000   0.00000  -0.00000  -0.00000   0.00001
  80        3PZ        -0.00000   0.00000   0.00000   0.00000   0.00000
  81 9   N  1S          0.00001  -0.00000   0.99261   0.00000  -0.00001
  82        2S          0.00003  -0.00000   0.03481  -0.00000  -0.00004
  83        2PX         0.00000  -0.00000  -0.00010   0.00000  -0.00000
  84        2PY         0.00000   0.00000   0.00004   0.00000  -0.00000
  85        2PZ         0.00000  -0.00000   0.00000   0.00000  -0.00000
  86        3S         -0.00030   0.00006   0.00452   0.00000   0.00044
  87        3PX         0.00011  -0.00002   0.00004  -0.00001  -0.00017
  88        3PY        -0.00007  -0.00001  -0.00002  -0.00001   0.00008
  89        3PZ         0.00000   0.00000  -0.00000   0.00000  -0.00000
  90        4XX         0.00000   0.00000  -0.00840   0.00000  -0.00001
  91        4YY         0.00001  -0.00000  -0.00840  -0.00000  -0.00002
  92        4ZZ         0.00002   0.00000  -0.00844  -0.00000  -0.00003
  93        4XY         0.00000   0.00000  -0.00001  -0.00000  -0.00001
  94        4XZ         0.00000  -0.00000   0.00000   0.00000   0.00000
  95        4YZ        -0.00000  -0.00000  -0.00000  -0.00000  -0.00000
  96 10  H  1S          0.00001  -0.00000   0.00033   0.00000  -0.00001
  97        2S         -0.00001   0.00000  -0.00059   0.00000   0.00001
  98        3PX        -0.00000   0.00000  -0.00002   0.00000   0.00000
  99        3PY         0.00000   0.00000  -0.00001  -0.00000  -0.00001
 100        3PZ         0.00000  -0.00000  -0.00000   0.00000   0.00000
 101 11  H  1S         -0.00000  -0.00000   0.00032  -0.00000  -0.00000
 102        2S         -0.00001  -0.00001  -0.00059  -0.00000   0.00001
 103        3PX        -0.00000   0.00000  -0.00000   0.00000   0.00001
 104        3PY        -0.00000  -0.00000   0.00002   0.00000   0.00000
 105        3PZ         0.00000   0.00000  -0.00000   0.00000  -0.00000
 106 12  C  1S          0.00000   0.00000   0.00006   0.00000  -0.00002
 107        2S          0.00002   0.00000   0.00027   0.00001  -0.00001
 108        2PX        -0.00001   0.00000   0.00028   0.00000   0.00002
 109        2PY         0.00001  -0.00000  -0.00009   0.00000  -0.00000
 110        2PZ        -0.00000   0.00000   0.00000  -0.00000   0.00000
 111        3S          0.00012  -0.00015  -0.00059  -0.00008  -0.00041
 112        3PX         0.00029   0.00001  -0.00016   0.00005  -0.00030
 113        3PY        -0.00012   0.00012  -0.00000   0.00001   0.00017
 114        3PZ         0.00000  -0.00000   0.00000   0.00000  -0.00000
 115        4XX         0.00001  -0.00000   0.00003  -0.00000  -0.00002
 116        4YY         0.00001  -0.00000   0.00008   0.00000  -0.00001
 117        4ZZ         0.00001   0.00000  -0.00001   0.00000  -0.00001
 118        4XY        -0.00001  -0.00000   0.00001  -0.00000   0.00001
 119        4XZ        -0.00000  -0.00000  -0.00000  -0.00000  -0.00000
 120        4YZ         0.00000  -0.00000  -0.00000   0.00000  -0.00000
 121 13  H  1S          0.00002  -0.00000  -0.00004   0.00000  -0.00002
 122        2S          0.00002  -0.00006   0.00005   0.00001   0.00004
 123        3PX        -0.00001  -0.00000  -0.00005  -0.00000   0.00001
 124        3PY         0.00000   0.00000   0.00006  -0.00000  -0.00001
 125        3PZ        -0.00000  -0.00000  -0.00000  -0.00000   0.00000
 126 14  N  1S         -0.00002  -0.00004  -0.00000   0.99262  -0.00008
 127        2S         -0.00005  -0.00011  -0.00000   0.03492   0.00020
 128        2PX         0.00005  -0.00001  -0.00000   0.00021  -0.00008
 129        2PY        -0.00000  -0.00005   0.00000   0.00002  -0.00000
 130        2PZ        -0.00000  -0.00000  -0.00000  -0.00000   0.00000
 131        3S          0.00045   0.00115   0.00000   0.00417   0.00006
 132        3PX        -0.00089   0.00049   0.00001  -0.00032   0.00181
 133        3PY        -0.00000   0.00066  -0.00001  -0.00009   0.00227
 134        3PZ         0.00000   0.00000   0.00000   0.00000  -0.00000
 135        4XX        -0.00015   0.00003   0.00000  -0.00850  -0.00014
 136        4YY         0.00000  -0.00018  -0.00000  -0.00853  -0.00070
 137        4ZZ        -0.00006  -0.00009  -0.00000  -0.00842   0.00012
 138        4XY        -0.00010  -0.00000   0.00000   0.00001  -0.00023
 139        4XZ         0.00000  -0.00000   0.00000   0.00000   0.00000
 140        4YZ         0.00000  -0.00000   0.00000  -0.00000   0.00000
 141 15  C  1S         -0.00000   0.00003  -0.00000   0.00002   0.99285
 142        2S          0.00047   0.00010  -0.00000   0.00012   0.04846
 143        2PX         0.00011  -0.00005  -0.00000   0.00007  -0.00058
 144        2PY         0.00004   0.00009  -0.00000   0.00030   0.00074
 145        2PZ        -0.00000  -0.00000  -0.00000  -0.00000  -0.00000
 146        3S         -0.00368  -0.00005  -0.00001  -0.00064  -0.00454
 147        3PX         0.00334   0.00054   0.00000   0.00009  -0.00335
 148        3PY         0.00038  -0.00028   0.00001  -0.00022   0.00057
 149        3PZ         0.00000  -0.00000   0.00000   0.00000   0.00000
 150        4XX        -0.00101   0.00004  -0.00000   0.00008  -0.00831
 151        4YY        -0.00012   0.00004  -0.00000   0.00022  -0.00893
 152        4ZZ        -0.00004   0.00007  -0.00000  -0.00002  -0.00974
 153        4XY        -0.00026   0.00002  -0.00000   0.00005   0.00032
 154        4XZ         0.00000  -0.00000  -0.00000  -0.00000  -0.00000
 155        4YZ         0.00000  -0.00000  -0.00000  -0.00000  -0.00000
 156 16  C  1S         -0.00000  -0.00000   0.00000   0.00002  -0.00050
 157        2S         -0.00001   0.00046   0.00000   0.00009  -0.00030
 158        2PX        -0.00002  -0.00001   0.00000   0.00022   0.00000
 159        2PY         0.00004  -0.00010  -0.00000  -0.00020   0.00000
 160        2PZ         0.00000  -0.00000  -0.00000  -0.00000  -0.00000
 161        3S          0.00021  -0.00356   0.00000  -0.00056  -0.00008
 162        3PX        -0.00047  -0.00134  -0.00000  -0.00005  -0.00073
 163        3PY         0.00036  -0.00308  -0.00001   0.00020  -0.00181
 164        3PZ         0.00000  -0.00000  -0.00000   0.00000  -0.00000
 165        4XX        -0.00003  -0.00017   0.00000   0.00019  -0.00010
 166        4YY         0.00001  -0.00098   0.00000   0.00016   0.00004
 167        4ZZ        -0.00001  -0.00004   0.00000  -0.00001  -0.00011
 168        4XY         0.00006  -0.00031  -0.00000  -0.00012  -0.00007
 169        4XZ         0.00000  -0.00000   0.00000  -0.00000  -0.00000
 170        4YZ         0.00000  -0.00000  -0.00000   0.00000  -0.00000
 171 17  H  1S         -0.00006  -0.00005  -0.00000  -0.00004  -0.00035
 172        2S         -0.00037  -0.00032   0.00001  -0.00003   0.00261
 173        3PX        -0.00002   0.00001  -0.00000   0.00001   0.00017
 174        3PY         0.00002  -0.00002   0.00000  -0.00006  -0.00007
 175        3PZ         0.00000  -0.00000   0.00000   0.00000   0.00000
 176 18  O  1S          0.99272   0.00033  -0.00000  -0.00000  -0.00011
 177        2S          0.02561   0.00005  -0.00000  -0.00000   0.00064
 178        2PX         0.00126  -0.00000  -0.00000  -0.00002   0.00001
 179        2PY         0.00038   0.00005   0.00000  -0.00001   0.00004
 180        2PZ        -0.00000  -0.00000   0.00000  -0.00000   0.00000
 181        3S          0.01461   0.00004   0.00001   0.00017  -0.00445
 182        3PX         0.00171   0.00001   0.00000   0.00000  -0.00226
 183        3PY         0.00061  -0.00010  -0.00000  -0.00004  -0.00099
 184        3PZ        -0.00000   0.00000  -0.00000   0.00000  -0.00000
 185        4XX        -0.00762   0.00003  -0.00000  -0.00005  -0.00004
 186        4YY        -0.00817   0.00002  -0.00000  -0.00006   0.00034
 187        4ZZ        -0.00825   0.00010  -0.00000   0.00000   0.00054
 188        4XY         0.00021   0.00000   0.00000  -0.00005  -0.00024
 189        4XZ        -0.00000  -0.00000  -0.00000   0.00000  -0.00000
 190        4YZ        -0.00000   0.00000  -0.00000   0.00000  -0.00000
 191 19  H  1S          0.00006  -0.00003  -0.00000  -0.00002  -0.00018
 192        2S         -0.00056  -0.00051  -0.00000   0.00007  -0.00051
 193        3PX        -0.00005   0.00006  -0.00000  -0.00006   0.00001
 194        3PY         0.00001   0.00002   0.00000   0.00001   0.00007
 195        3PZ         0.00000   0.00000   0.00000   0.00000   0.00000
 196 20  O  1S         -0.00029   0.99272   0.00000   0.00000  -0.00007
 197        2S          0.00008   0.02560   0.00000   0.00003  -0.00032
 198        2PX        -0.00002  -0.00026   0.00000  -0.00000   0.00003
 199        2PY        -0.00000  -0.00127  -0.00000   0.00002   0.00002
 200        2PZ        -0.00000  -0.00000  -0.00000   0.00000   0.00000
 201        3S         -0.00050   0.01462   0.00000  -0.00007   0.00212
 202        3PX         0.00015  -0.00023  -0.00000  -0.00004  -0.00014
 203        3PY         0.00013  -0.00179   0.00000   0.00007  -0.00049
 204        3PZ         0.00000  -0.00000   0.00000   0.00000  -0.00000
 205        4XX         0.00007  -0.00820   0.00000  -0.00001  -0.00021
 206        4YY         0.00004  -0.00761   0.00000  -0.00006  -0.00018
 207        4ZZ         0.00008  -0.00826   0.00000   0.00002  -0.00019
 208        4XY        -0.00002   0.00014   0.00000   0.00003   0.00000
 209        4XZ        -0.00000   0.00000   0.00000   0.00000  -0.00000
 210        4YZ        -0.00000   0.00000  -0.00000  -0.00000   0.00000
                           6         7         8         9        10
                           O         O         O         O         O
     Eigenvalues --   -10.44869 -10.44602 -10.42138 -10.39846 -10.36915
   1 1   C  1S         -0.00002  -0.00002   0.99279  -0.00012   0.00001
   2        2S         -0.00003  -0.00005   0.04899  -0.00013  -0.00004
   3        2PX         0.00006  -0.00001  -0.00092  -0.00000  -0.00002
   4        2PY        -0.00010   0.00001  -0.00050  -0.00003  -0.00000
   5        2PZ        -0.00000   0.00000   0.00000  -0.00000   0.00000
   6        3S         -0.00129   0.00060  -0.01002   0.00045  -0.00007
   7        3PX        -0.00333   0.00035  -0.00394   0.00016   0.00097
   8        3PY         0.00210  -0.00046   0.00064  -0.00007   0.00013
   9        3PZ        -0.00000   0.00000  -0.00000   0.00000  -0.00000
  10        4XX         0.00019  -0.00001  -0.00847   0.00010  -0.00002
  11        4YY        -0.00000   0.00001  -0.00915   0.00006  -0.00003
  12        4ZZ        -0.00001  -0.00002  -0.00962  -0.00002  -0.00002
  13        4XY         0.00003  -0.00001   0.00004  -0.00002  -0.00001
  14        4XZ        -0.00000   0.00000  -0.00000  -0.00000  -0.00000
  15        4YZ         0.00000  -0.00000  -0.00000  -0.00000   0.00000
  16 2   H  1S         -0.00020   0.00001  -0.00038  -0.00001  -0.00004
  17        2S         -0.00063   0.00018   0.00173  -0.00013   0.00007
  18        3PX         0.00010  -0.00001   0.00021  -0.00001  -0.00002
  19        3PY        -0.00001  -0.00000   0.00011   0.00002  -0.00001
  20        3PZ         0.00000  -0.00000   0.00000   0.00000   0.00000
  21 3   C  1S         -0.00004  -0.00002   0.00575   0.00742  -0.00159
  22        2S         -0.00020  -0.00010  -0.00019  -0.00002  -0.00011
  23        2PX        -0.00006  -0.00002   0.00029  -0.00034   0.00002
  24        2PY        -0.00000   0.00001  -0.00027  -0.00016   0.00003
  25        2PZ         0.00000   0.00000   0.00000   0.00000  -0.00000
  26        3S          0.00382   0.00086   0.00556   0.00528  -0.00039
  27        3PX        -0.00111   0.00134  -0.00133   0.00284  -0.00012
  28        3PY         0.00129   0.00008   0.00179   0.00030  -0.00024
  29        3PZ        -0.00000  -0.00000  -0.00000  -0.00000   0.00000
  30        4XX         0.00003   0.00002  -0.00039  -0.00047   0.00009
  31        4YY        -0.00003  -0.00002  -0.00044  -0.00047   0.00007
  32        4ZZ        -0.00007  -0.00004  -0.00020  -0.00022   0.00002
  33        4XY        -0.00002   0.00003   0.00010  -0.00014   0.00003
  34        4XZ         0.00000  -0.00000  -0.00000   0.00000  -0.00000
  35        4YZ        -0.00000  -0.00000   0.00000   0.00000  -0.00000
  36 4   H  1S          0.00000  -0.00004   0.00000  -0.00008  -0.00001
  37        2S          0.00010   0.00001   0.00029  -0.00053  -0.00015
  38        3PX         0.00003  -0.00004  -0.00000  -0.00004  -0.00001
  39        3PY         0.00000   0.00001   0.00010   0.00008  -0.00002
  40        3PZ         0.00000   0.00000  -0.00000  -0.00000   0.00000
  41 5   C  1S          0.00001   0.00002   0.00007   0.99275  -0.01034
  42        2S          0.00005  -0.00009  -0.00005   0.04931  -0.00099
  43        2PX         0.00006  -0.00008   0.00012   0.00002  -0.00036
  44        2PY        -0.00001  -0.00006  -0.00008  -0.00016   0.00016
  45        2PZ        -0.00000  -0.00000   0.00000   0.00000  -0.00000
  46        3S         -0.00132  -0.00098  -0.00209  -0.01653   0.00654
  47        3PX        -0.00025   0.00108  -0.00124  -0.00005   0.00305
  48        3PY         0.00035   0.00061   0.00116   0.00271  -0.00083
  49        3PZ        -0.00000  -0.00000  -0.00000  -0.00000   0.00000
  50        4XX        -0.00005   0.00008   0.00005  -0.00897  -0.00026
  51        4YY         0.00001   0.00004   0.00004  -0.00910  -0.00028
  52        4ZZ        -0.00000  -0.00004  -0.00002  -0.00951  -0.00004
  53        4XY         0.00002  -0.00006   0.00005  -0.00004   0.00010
  54        4XZ        -0.00000   0.00000  -0.00000   0.00000  -0.00000
  55        4YZ        -0.00000  -0.00000  -0.00000  -0.00000   0.00000
  56 6   H  1S         -0.00003  -0.00007  -0.00010  -0.00043  -0.00006
  57        2S          0.00014  -0.00013  -0.00021   0.00143  -0.00039
  58        3PX         0.00000  -0.00005   0.00004   0.00000  -0.00004
  59        3PY        -0.00001   0.00000  -0.00000   0.00022  -0.00009
  60        3PZ         0.00000  -0.00000   0.00000  -0.00000   0.00000
  61 7   C  1S         -0.00002   0.00328  -0.00004   0.00993   0.99272
  62        2S         -0.00007  -0.00028  -0.00015   0.00004   0.04980
  63        2PX         0.00001  -0.00030  -0.00001   0.00034   0.00016
  64        2PY         0.00002  -0.00020   0.00001  -0.00017   0.00037
  65        2PZ        -0.00000   0.00000   0.00000   0.00000  -0.00000
  66        3S          0.00060   0.00526   0.00189   0.00567  -0.01745
  67        3PX        -0.00083   0.00233  -0.00135  -0.00257   0.00019
  68        3PY         0.00011   0.00140   0.00043   0.00060  -0.00321
  69        3PZ        -0.00000  -0.00000  -0.00000  -0.00000   0.00000
  70        4XX         0.00002  -0.00037   0.00005  -0.00046  -0.00912
  71        4YY        -0.00000  -0.00040  -0.00002  -0.00050  -0.00916
  72        4ZZ        -0.00003  -0.00019  -0.00005  -0.00024  -0.00959
  73        4XY        -0.00003  -0.00005  -0.00002   0.00014   0.00002
  74        4XZ         0.00000  -0.00000   0.00000  -0.00000   0.00000
  75        4YZ        -0.00000   0.00000  -0.00000   0.00000  -0.00000
  76 8   H  1S         -0.00003  -0.00005  -0.00004  -0.00009  -0.00042
  77        2S          0.00006   0.00015   0.00008  -0.00027   0.00129
  78        3PX         0.00003  -0.00004   0.00004   0.00003  -0.00000
  79        3PY         0.00000   0.00011   0.00001   0.00010  -0.00020
  80        3PZ         0.00000  -0.00000   0.00000  -0.00000   0.00000
  81 9   N  1S          0.00000  -0.00024  -0.00001  -0.00001   0.00002
  82        2S          0.00001  -0.00007  -0.00002  -0.00005   0.00001
  83        2PX         0.00001   0.00027   0.00002   0.00003  -0.00001
  84        2PY         0.00000  -0.00006   0.00000   0.00001  -0.00001
  85        2PZ         0.00000   0.00000   0.00000   0.00000   0.00000
  86        3S         -0.00017   0.00074   0.00002   0.00021  -0.00051
  87        3PX         0.00002   0.00038  -0.00012  -0.00031   0.00034
  88        3PY        -0.00001  -0.00098   0.00000  -0.00011   0.00022
  89        3PZ        -0.00000   0.00000  -0.00000  -0.00000  -0.00000
  90        4XX        -0.00000  -0.00071  -0.00000  -0.00001   0.00013
  91        4YY         0.00000  -0.00049  -0.00001  -0.00004   0.00009
  92        4ZZ        -0.00000   0.00005  -0.00003  -0.00003   0.00001
  93        4XY        -0.00000   0.00022  -0.00001   0.00001   0.00000
  94        4XZ         0.00000  -0.00000   0.00000   0.00000   0.00000
  95        4YZ        -0.00000   0.00000  -0.00000  -0.00000  -0.00000
  96 10  H  1S          0.00001   0.00023   0.00002   0.00004  -0.00006
  97        2S          0.00002   0.00002   0.00005   0.00011   0.00004
  98        3PX        -0.00000  -0.00024  -0.00000  -0.00001  -0.00000
  99        3PY        -0.00000   0.00000  -0.00001  -0.00001   0.00004
 100        3PZ         0.00000  -0.00000   0.00000   0.00000  -0.00000
 101 11  H  1S         -0.00000   0.00002  -0.00002  -0.00005   0.00004
 102        2S          0.00003  -0.00034   0.00005   0.00008   0.00005
 103        3PX        -0.00000  -0.00015   0.00000   0.00000  -0.00000
 104        3PY         0.00000   0.00018   0.00000   0.00002  -0.00002
 105        3PZ        -0.00000  -0.00000  -0.00000  -0.00000   0.00000
 106 12  C  1S         -0.00006   0.99278   0.00001  -0.00006  -0.00369
 107        2S         -0.00003   0.04880  -0.00002  -0.00011  -0.00059
 108        2PX        -0.00001   0.00069   0.00001  -0.00001   0.00029
 109        2PY         0.00001  -0.00033   0.00002  -0.00001   0.00021
 110        2PZ        -0.00000   0.00000  -0.00000  -0.00000   0.00000
 111        3S          0.00040  -0.01209   0.00012  -0.00006   0.00622
 112        3PX         0.00001   0.00274  -0.00004  -0.00001  -0.00231
 113        3PY        -0.00030   0.00106  -0.00030   0.00008  -0.00118
 114        3PZ         0.00000   0.00000   0.00000   0.00000  -0.00000
 115        4XX        -0.00000  -0.00870  -0.00002   0.00008  -0.00039
 116        4YY         0.00001  -0.00918   0.00000   0.00003  -0.00039
 117        4ZZ        -0.00002  -0.00969  -0.00002  -0.00002  -0.00012
 118        4XY         0.00000  -0.00017   0.00000   0.00002  -0.00018
 119        4XZ         0.00000   0.00000  -0.00000   0.00000   0.00000
 120        4YZ        -0.00000  -0.00000   0.00000  -0.00000   0.00000
 121 13  H  1S          0.00002  -0.00036   0.00001  -0.00001  -0.00007
 122        2S          0.00008   0.00173   0.00017  -0.00011  -0.00018
 123        3PX         0.00000  -0.00016   0.00000   0.00001   0.00003
 124        3PY         0.00000   0.00014  -0.00001   0.00001  -0.00009
 125        3PZ         0.00000  -0.00000   0.00000  -0.00000   0.00000
[...]
     1  C    0.002815   0.000441   0.000001  -0.000000   0.000000  -0.000332
     2  H    0.000355   0.000006   0.000000  -0.000000   0.000000   0.000006
     3  C   -0.030151  -0.006659  -0.000133   0.000001   0.000001   0.002919
     4  H   -0.006067   0.002983   0.000001   0.000000   0.000001   0.000312
     5  C    0.518341  -0.032633   0.000944  -0.000089   0.000140  -0.002915
     6  H   -0.052569   0.004431   0.000255   0.000001   0.000015  -0.005707
     7  C    4.877535   0.386156  -0.038357   0.003112  -0.004159   0.490295
     8  H    0.386156   0.555018  -0.003859  -0.000035   0.003529  -0.048850
     9  N   -0.038357  -0.003859   6.531345   0.353912   0.352791   0.377923
    10  H    0.003112  -0.000035   0.353912   0.355114  -0.022265  -0.022174
    11  H   -0.004159   0.003529   0.352791  -0.022265   0.366272  -0.030622
    12  C    0.490295  -0.048850   0.377923  -0.022174  -0.030622   4.661133
    13  H   -0.039322   0.003811  -0.042424  -0.005348   0.004134   0.388261
    14  N   -0.000130   0.000000  -0.000000   0.000000   0.000000   0.000001
    15  C   -0.000002  -0.000001  -0.000000   0.000000   0.000000   0.000000
    16  C    0.000000   0.000000   0.000000  -0.000000   0.000000   0.000000
    17  H   -0.000019  -0.000000   0.000000   0.000000   0.000000  -0.000000
    18  O    0.000000  -0.000000  -0.000000  -0.000000   0.000000  -0.000000
    19  H   -0.000000  -0.000000  -0.000000   0.000000   0.000000   0.000000
    20  O   -0.000000  -0.000000  -0.000000   0.000000   0.000000   0.000000
              13         14         15         16         17         18
     1  C    0.000003   0.278328  -0.024615  -0.015626   0.000241   0.002285
     2  H    0.000003  -0.048656   0.001740  -0.005207  -0.000430  -0.000109
     3  C    0.000247  -0.035356  -0.000896   0.005042   0.001100   0.000081
     4  H    0.000006  -0.005080   0.001065  -0.000096   0.001825   0.000034
     5  C   -0.004671   0.001502   0.000265  -0.000048   0.000345  -0.000003
     6  H    0.004257   0.000218   0.000003  -0.000005  -0.000002   0.000000
     7  C   -0.039322  -0.000130  -0.000002   0.000000  -0.000019   0.000000
     8  H    0.003811   0.000000  -0.000001   0.000000  -0.000000  -0.000000
     9  N   -0.042424  -0.000000  -0.000000   0.000000   0.000000  -0.000000
    10  H   -0.005348   0.000000   0.000000  -0.000000   0.000000  -0.000000
    11  H    0.004134   0.000000   0.000000   0.000000   0.000000   0.000000
    12  C    0.388261   0.000001   0.000000   0.000000  -0.000000  -0.000000
    13  H    0.510763   0.000000   0.000000   0.000000  -0.000000   0.000000
    14  N    0.000000   7.339784   0.178886   0.153776  -0.099550  -0.078201
    15  C    0.000000   0.178886   4.430022  -0.013736   0.387414   0.581629
    16  C    0.000000   0.153776  -0.013736   4.471232   0.002405   0.002228
    17  H   -0.000000  -0.099550   0.387414   0.002405   0.619825  -0.041196
    18  O    0.000000  -0.078201   0.581629   0.002228  -0.041196   7.885089
    19  H    0.000000  -0.087018  -0.001068   0.395724   0.000211   0.012642
    20  O    0.000000  -0.085307   0.001128   0.563051  -0.000086   0.000241
              19         20
     1  C    0.005258   0.004591
     2  H    0.001038   0.025595
     3  C   -0.000013   0.001881
     4  H    0.000001  -0.000003
     5  C   -0.000000  -0.000044
     6  H   -0.000000  -0.000016
     7  C   -0.000000  -0.000000
     8  H   -0.000000  -0.000000
     9  N   -0.000000  -0.000000
    10  H    0.000000   0.000000
    11  H    0.000000   0.000000
    12  C    0.000000   0.000000
    13  H    0.000000   0.000000
    14  N   -0.087018  -0.085307
    15  C   -0.001068   0.001128
    16  C    0.395724   0.563051
    17  H    0.000211  -0.000086
    18  O    0.012642   0.000241
    19  H    0.520976  -0.034372
    20  O   -0.034372   7.900198
 Mulliken charges:
               1
     1  C    0.167054
     2  H    0.188419
     3  C   -0.105992
     4  H    0.134751
     5  C   -0.019003
     6  H    0.142187
     7  C   -0.107834
     8  H    0.135662
     9  N   -0.532399
    10  H    0.337770
    11  H    0.330163
    12  C    0.189749
    13  H    0.180281
    14  N   -0.513197
    15  C    0.458167
    16  C    0.441262
    17  H    0.127916
    18  O   -0.364722
    19  H    0.186622
    20  O   -0.376858
 Sum of Mulliken charges =   1.00000
 Mulliken charges with hydrogens summed into heavy atoms:
               1
     1  C    0.355473
     3  C    0.028759
     5  C    0.123184
     7  C    0.027828
     9  N    0.135535
    12  C    0.370030
    14  N   -0.513197
    15  C    0.586083
    16  C    0.627884
    18  O   -0.364722
    20  O   -0.376858
 Electronic spatial extent (au):  <R**2>=           3174.8178
 Charge=              1.0000 electrons
 Dipole moment (field-independent basis, Debye):
    X=             12.6696    Y=             -0.9787    Z=              0.0000  Tot=             12.7074
 Quadrupole moment (field-independent basis, Debye-Ang):
   XX=             15.8464   YY=            -57.9262   ZZ=            -63.2648
   XY=             -0.1972   XZ=              0.0001   YZ=             -0.0001
 Traceless Quadrupole moment (field-independent basis, Debye-Ang):
   XX=             50.9613   YY=            -22.8113   ZZ=            -28.1499
   XY=             -0.1972   XZ=              0.0001   YZ=             -0.0001
 Octapole moment (field-independent basis, Debye-Ang**2):
  XXX=            402.2697  YYY=            -14.4409  ZZZ=              0.0000  XYY=             41.6518
  XXY=             11.5160  XXZ=              0.0003  XZZ=            -12.6239  YZZ=              0.9712
  YYZ=             -0.0000  XYZ=             -0.0002
 Hexadecapole moment (field-independent basis, Debye-Ang**3):
 XXXX=           -967.7653 YYYY=           -478.1825 ZZZZ=            -57.0983 XXXY=            -98.9879
 XXXZ=              0.0021 YYYX=             17.5995 YYYZ=             -0.0002 ZZZX=              0.0000
 ZZZY=              0.0000 XXYY=           -608.0688 XXZZ=           -595.0285 YYZZ=            -86.1742
 XXYZ=             -0.0011 YYXZ=              0.0002 ZZXY=              0.7822
 N-N= 5.371978273195D+02 E-N=-2.300425906589D+03  KE= 5.268618730602D+02
 Orbital energies and kinetic energies (alpha):
                                 1                 2
   1         O               -19.300298         29.027735
   2         O               -19.298066         29.027625
   3         O               -14.568603         21.955574
   4         O               -14.560475         21.955447
   5         O               -10.458126         15.884184
   6         O               -10.448691         15.884427
   7         O               -10.446015         15.881968
   8         O               -10.421378         15.881936
   9         O               -10.398461         15.881731
  10         O               -10.369148         15.879292
  11         O               -10.366668         15.879688
  12         O                -1.223072          2.452565
  13         O                -1.203345          2.705893
  14         O                -1.135657          1.941363
  15         O                -1.115225          2.223334
  16         O                -0.997583          1.592324
  17         O                -0.937542          1.679623
  18         O                -0.861394          1.724229
  19         O                -0.829847          1.693508
  20         O                -0.803645          1.630564
  21         O                -0.766451          1.303457
  22         O                -0.721469          1.260427
  23         O                -0.713934          1.538040
  24         O                -0.681752          1.561856
  25         O                -0.673789          1.389711
  26         O                -0.660384          1.603506
  27         O                -0.610598          1.383197
  28         O                -0.608987          1.363666
  29         O                -0.596293          1.736357
  30         O                -0.584308          2.230871
  31         O                -0.577995          2.080498
  32         O                -0.565141          1.636169
  33         O                -0.564148          1.277246
  34         O                -0.545302          1.236537
  35         O                -0.534015          1.844101
  36         O                -0.510737          1.387096
  37         O                -0.466284          1.635604
  38         O                -0.442281          2.292324
  39         O                -0.407645          2.360888
  40         O                -0.390040          1.526373
  41         V                -0.257746          1.575405
  42         V                -0.175815          1.973919
  43         V                -0.161364          1.685188
  44         V                -0.103604          1.726795
  45         V                -0.091500          1.140173
  46         V                -0.078357          0.943027
  47         V                -0.067839          1.814751
  48         V                -0.047669          1.169678
  49         V                -0.032698          1.225004
  50         V                -0.015791          1.126242
  51         V                 0.001238          1.375051
  52         V                 0.009156          1.440830
  53         V                 0.034523          1.505066
  54         V                 0.038592          1.612643
  55         V                 0.072313          2.192277
  56         V                 0.096229          1.748460
  57         V                 0.124311          1.827938
  58         V                 0.130708          2.178463
  59         V                 0.154112          1.613897
  60         V                 0.171451          1.769082
  61         V                 0.201108          1.887195
  62         V                 0.211968          1.625375
  63         V                 0.236319          2.061432
  64         V                 0.268010          2.028996
  65         V                 0.321624          1.938007
  66         V                 0.337973          1.907905
  67         V                 0.348878          2.274519
  68         V                 0.350273          1.974990
  69         V                 0.374056          2.002841
  70         V                 0.395439          2.029871
  71         V                 0.396006          1.669198
  72         V                 0.408327          2.078398
  73         V                 0.421325          1.920232
  74         V                 0.437728          2.246926
  75         V                 0.441154          2.083357
  76         V                 0.462536          2.161817
  77         V                 0.476931          2.115403
  78         V                 0.478844          2.275836
  79         V                 0.519497          2.373259
  80         V                 0.536378          3.282162
  81         V                 0.537202          2.191483
  82         V                 0.540397          3.296445
  83         V                 0.562435          2.517972
  84         V                 0.617085          2.471369
  85         V                 0.639675          2.632544
  86         V                 0.652302          2.514630
  87         V                 0.655327          2.446263
  88         V                 0.660814          2.531727
  89         V                 0.672383          2.567934
  90         V                 0.688528          2.640931
  91         V                 0.689797          2.832272
  92         V                 0.695047          2.707294
  93         V                 0.700408          2.769237
  94         V                 0.703148          2.640243
  95         V                 0.744661          2.419282
  96         V                 0.762357          2.446498
  97         V                 0.783619          2.274163
  98         V                 0.823130          2.396650
  99         V                 0.837284          3.454484
 100         V                 0.850786          2.328982
 101         V                 0.859436          2.347899
 102         V                 0.868148          3.408364
 103         V                 0.877415          2.434905
 104         V                 0.917646          2.238867
 105         V                 0.955369          2.713173
 106         V                 0.972686          2.719669
 107         V                 1.015010          2.600619
 108         V                 1.069655          2.573085
 109         V                 1.082086          2.425791
 110         V                 1.104830          2.443703
 111         V                 1.105007          2.520374
 112         V                 1.113322          2.450274
 113         V                 1.137493          2.479051
 114         V                 1.148316          2.451304
 115         V                 1.166133          2.494636
 116         V                 1.192626          2.770630
 117         V                 1.213182          2.489439
 118         V                 1.218771          3.080565
 119         V                 1.259277          2.926491
 120         V                 1.268373          2.528556
 121         V                 1.310040          2.613916
 122         V                 1.315944          2.620459
 123         V                 1.327110          2.616822
 124         V                 1.337445          2.764769
 125         V                 1.395985          2.862268
 126         V                 1.406338          2.824192
 127         V                 1.481132          2.818090
 128         V                 1.553085          2.910435
 129         V                 1.577947          2.808276
 130         V                 1.613542          3.232601
 131         V                 1.635866          3.206610
 132         V                 1.645105          3.146372
 133         V                 1.645341          2.842064
 134         V                 1.659905          3.205918
 135         V                 1.672465          3.301677
 136         V                 1.688842          2.917929
 137         V                 1.701536          3.347556
 138         V                 1.746233          3.283454
 139         V                 1.753043          3.258984
 140         V                 1.781534          3.025102
 141         V                 1.784318          3.400992
 142         V                 1.816865          3.287863
 143         V                 1.849400          3.115553
 144         V                 1.891444          3.459282
 145         V                 1.901060          3.360025
 146         V                 1.908156          3.384008
 147         V                 1.931074          3.273958
 148         V                 1.943135          3.205237
 149         V                 1.945486          3.378513
 150         V                 1.956438          3.391833
 151         V                 1.987486          3.296226
 152         V                 2.002209          3.409610
 153         V                 2.028517          3.504398
 154         V                 2.037958          3.273764
 155         V                 2.052972          3.582158
 156         V                 2.108087          3.354890
 157         V                 2.160545          3.859350
 158         V                 2.170907          3.431841
 159         V                 2.233162          3.336529
 160         V                 2.239648          3.975045
 161         V                 2.255036          4.004830
 162         V                 2.275755          3.473902
 163         V                 2.283372          3.469757
 164         V                 2.321214          3.526863
 165         V                 2.332718          3.948993
 166         V                 2.341292          3.834300
 167         V                 2.352773          3.577947
 168         V                 2.362237          3.963736
 169         V                 2.412099          3.667839
 170         V                 2.465717          3.846516
 171         V                 2.467450          3.743641
 172         V                 2.471049          4.069750
 173         V                 2.504160          3.824698
 174         V                 2.521834          4.324777
 175         V                 2.527177          3.834677
 176         V                 2.541020          3.875682
 177         V                 2.574826          3.941168
 178         V                 2.576126          4.383766
 179         V                 2.586507          3.950024
 180         V                 2.626899          4.086493
 181         V                 2.689883          4.435843
 182         V                 2.718593          4.554957
 183         V                 2.740775          4.519254
 184         V                 2.765050          4.464856
 185         V                 2.803232          4.541627
 186         V                 2.818588          4.794065
 187         V                 2.824281          4.709884
 188         V                 2.840593          4.762067
 189         V                 2.969348          5.039662
 190         V                 3.002655          5.069973
 191         V                 3.071743          5.254714
 192         V                 3.187003          5.587938
 193         V                 3.222475          5.423923
 194         V                 3.265485          5.490586
 195         V                 3.324356          5.372998
 196         V                 3.396765          5.398807
 197         V                 3.436620          5.430609
 198         V                 3.485451          5.448725
 199         V                 3.556204          5.595940
 200         V                 3.743295         10.107137
 201         V                 3.801351          9.773261
 202         V                 3.838318         10.283459
 203         V                 3.951251         10.126107
 204         V                 3.974472         10.679308
 205         V                 4.008763         10.034083
 206         V                 4.106800          9.892171
 207         V                 4.235360          9.847211
 208         V                 4.297074         10.433396
 209         V                 4.378696          9.834903
 210         V                 4.542011          9.830825
 Total kinetic energy from orbitals= 5.268618730602D+02
 Leave Link  601 at Mon Jun  7 15:44:46 2021, MaxMem=    33554432 cpu:         0.5
 (Enter /opt/app/gaussian09/e01/g09/l9999.exe)
 1\1\GINC-NB-0289\SP\RB3LYP TD-FC\6-31G(d,p)\C7H9N2O2(1+)\ROOT\07-Jun-2
 021\0\\#p td(NStates=10) b3lyp/6-31g(d,p) pop=full\\td\\1,1\C,0,-0.762
 61735,-0.37559633,0.00000245\H,0,-0.68784476,-1.46122418,0.00000215\C,
 0,0.37448428,0.39139266,-0.00000091\H,0,0.34741072,1.4757008,-0.000010
 51\C,0,1.63098246,-0.25152503,0.00000435\H,0,1.62878537,-1.34161127,0.
 00000992\C,0,2.85620239,0.39224046,-0.00000025\H,0,2.90612682,1.478242
 04,-0.0000039\N,0,5.2584106,0.15842769,-0.0000024\H,0,6.07667777,-0.43
 55877,-0.00000083\H,0,5.41807731,1.1586293,-0.00001068\C,0,4.03999974,
 -0.35105568,0.00000084\H,0,3.99014231,-1.43780174,0.00001127\N,0,-2.06
 650183,0.0348731,0.00000112\C,0,-2.49090167,1.40052242,0.00000062\C,0,
 -3.08937754,-0.99529764,-0.00000051\H,0,-1.6598827,2.11917907,0.000000
 51\O,0,-3.6510454,1.70989634,0.0000005\H,0,-4.09783852,-0.56989507,-0.
 00000105\O,0,-2.80116078,-2.16024909,-0.00000394\\Version=ES64L-G09Rev
 E.01\State=1-A\HF=-531.8733888\RMSD=4.619e-09\PG=C01 [X(C7H9N2O2)]\\@


 LIFE CAN ONLY BE UNDERSTOOD BACKWARD, BUT MUST
 BE LIVED FORWARD. -- KIRKEGAARD
 Job cpu time:       0 days  0 hours  8 minutes  9.2 seconds.
 File lengths (MBytes):  RWF=    127 Int=      0 D2E=      0 Chk=     21 Scr=      1
 Normal termination of Gaussian 09 at Mon Jun  7 15:45:01 2021.
