 Entering Gaussian System, Link 0=/opt/app/gaussian09/e01/g09/g09.exec
 Input=1_amino_anthraquinone_opt.gjf
 Output=1_amino_anthraquinone_opt.log
 Initial command:
 /opt/app/gaussian09/e01/g09/l1.exe "./Gau-26794.inp" -scrdir="./"
 Entering Link 1 = /opt/app/gaussian09/e01/g09/l1.exe PID=     26799.
  
 Copyright (c) 1988,1990,1992,1993,1995,1998,2003,2009,2015,
            Gaussian, Inc.  All Rights Reserved.
  
 This is part of the Gaussian(R) 09 program.  It is based on
 the Gaussian(R) 03 system (copyright 2003, Gaussian, Inc.),
 the Gaussian(R) 98 system (copyright 1998, Gaussian, Inc.),
 the Gaussian(R) 94 system (copyright 1995, Gaussian, Inc.),
 the Gaussian 92(TM) system (copyright 1992, Gaussian, Inc.),
 the Gaussian 90(TM) system (copyright 1990, Gaussian, Inc.),
 the Gaussian 88(TM) system (copyright 1988, Gaussian, Inc.),
 the Gaussian 86(TM) system (copyright 1986, Carnegie Mellon
 University), and the Gaussian 82(TM) system (copyright 1983,
 Carnegie Mellon University). Gaussian is a federally registered
 trademark of Gaussian, Inc.
  
 This software contains proprietary and confidential information,
 including trade secrets, belonging to Gaussian, Inc.
  
 This software is provided under written license and may be
 used, copied, transmitted, or stored only in accord with that
 written license.
  
 The following legend is applicable only to US Government
 contracts under FAR:
  
                    RESTRICTED RIGHTS LEGEND
  
 Use, reproduction and disclosure by the US Government is
 subject to restrictions as set forth in subparagraphs (a)
 and (c) of the Commercial Computer Software - Restricted
 Rights clause in FAR 52.227-19.
  
 Gaussian, Inc.
 340 Quinnipiac St., Bldg. 40, Wallingford CT 06492
  
  
 ---------------------------------------------------------------
 Warning -- This program may not be used in any manner that
 competes with the business of Gaussian, Inc. or will provide
 assistance to any competitor of Gaussian, Inc.  The licensee
 of this program is prohibited from giving any competitor of
 Gaussian, Inc. access to this program.  By using this program,
 the user acknowledges that Gaussian, Inc. is engaged in the
 business of creating and licensing software in the field of
 computational chemistry and represents and warrants to the
 licensee that it is not a competitor of Gaussian, Inc. and that
 it will not use this program in any manner prohibited above.
 ---------------------------------------------------------------
  

 Cite this work as:
 Gaussian 09, Revision E.01,
 M. J. Frisch, G. W. Trucks, H. B. Schlegel, G. E. Scuseria, 
 M. A. Robb, J. R. Cheeseman, G. Scalmani, V. Barone, B. Mennucci, 
 G. A. Petersson, H. Nakatsuji, M. Caricato, X. Li, H. P. Hratchian, 
 A. F. Izmaylov, J. Bloino, G. Zheng, J. L. Sonnenberg, M. Hada, 
 M. Ehara, K. Toyota, R. Fukuda, J. Hasegawa, M. Ishida, T. Nakajima, 
 Y. Honda, O. Kitao, H. Nakai, T. Vreven, J. A. Montgomery, Jr., 
 J. E. Peralta, F. Ogliaro, M. Bearpark, J. J. Heyd, E. Brothers, 
 K. N. Kudin, V. N. Staroverov, T. Keith, R. Kobayashi, J. Normand, 
 K. Raghavachari, A. Rendell, J. C. Burant, S. S. Iyengar, J. Tomasi, 
 M. Cossi, N. Rega, J. M. Millam, M. Klene, J. E. Knox, J. B. Cross, 
 V. Bakken, C. Adamo, J. Jaramillo, R. Gomperts, R. E. Stratmann, 
 O. Yazyev, A. J. Austin, R. Cammi, C. Pomelli, J. W. Ochterski, 
 R. L. Martin, K. Morokuma, V. G. Zakrzewski, G. A. Voth, 
 P. Salvador, J. J. Dannenberg, S. Dapprich, A. D. Daniels, 
 O. Farkas, J. B. Foresman, J. V. Ortiz, J. Cioslowski, 
 and D. J. Fox, Gaussian, Inc., Wallingford CT, 2013.
 
 ******************************************
 Gaussian 09:  ES64L-G09RevE.01 30-Nov-2015
                30-May-2021 
 ******************************************
 %chk=1_amino_anthraquinone_opt.chk
 -----------------------------------------------------
 #p opt b3lyp/6-31g(d) geom=connectivity int=ultrafine
 -----------------------------------------------------
 1/14=-1,18=20,19=15,26=4,38=1,57=2/1,3;
 2/9=110,12=2,17=6,18=5,40=1/2;
 3/5=1,6=6,7=1,11=2,16=1,25=1,30=1,71=1,74=-5,75=-5/1,2,3;
 4//1;
 5/5=2,38=5/2;
 6/7=2,8=2,9=2,10=2,28=1/1;
 7//1,2,3,16;
 1/14=-1,18=20,19=15,26=4/3(2);
 2/9=110/2;
 99//99;
 2/9=110/2;
 3/5=1,6=6,7=1,11=2,16=1,25=1,30=1,71=1,74=-5,75=-5/1,2,3;
 4/5=5,16=3,69=1/1;
 5/5=2,38=5/2;
 7//1,2,3,16;
 1/14=-1,18=20,19=15,26=4/3(-5);
 2/9=110/2;
 6/7=2,8=2,9=2,10=2,19=2,28=1/1;
 99/9=1/99;
 Leave Link    1 at Sun May 30 22:19:12 2021, MaxMem=           0 cpu:         0.0
 (Enter /opt/app/gaussian09/e01/g09/l101.exe)
 -------------------------
 1_amino_anthraquinone opt
 -------------------------
 Symbolic Z-matrix:
 Charge =  0 Multiplicity = 1
 C                    -3.28481  -3.198    -0.01292 
 C                    -1.92019  -3.198    -0.01292 
 C                    -1.1873   -1.96678  -0.01292 
 C                    -1.9113   -0.73503  -0.01843 
 C                    -3.34354  -0.77652  -0.01973 
 C                    -4.00732  -1.96881  -0.01636 
 C                     0.2116   -1.94389  -0.00802 
 C                    -1.21092   0.47614  -0.02016 
 C                     0.18802   0.49902  -0.01453 
 C                     0.91199  -0.73268  -0.00711 
 C                     2.34417  -0.69106   0. 
 H                     2.89004  -1.64658   0.0066 
 C                     3.00791   0.5013    0.00104 
 C                     2.28543   1.73041  -0.00713 
 C                     0.92078   1.73027  -0.0145 
 H                    -3.85068  -4.14127  -0.01051 
 H                    -1.35086  -4.13973  -0.00981 
 H                    -3.88935   0.17903  -0.02434 
 H                    -5.10672  -2.00498  -0.01779 
 H                     4.10732   0.5372    0.0072 
 H                     2.85151   2.67359  -0.00604 
 O                    -1.93587   1.70874  -0.0257 
 O                     0.93599  -3.17682  -0.00241 
 N                     0.16      2.98806  -0.02288 
 H                     0.38712   3.52043   0.7926 
 H                     0.39457   3.51407  -0.84037 
 
 NAtoms=     26 NQM=       26 NQMF=       0 NMMI=      0 NMMIF=      0
                NMic=       0 NMicF=      0.
                    Isotopes and Nuclear Properties:
 (Nuclear quadrupole moments (NQMom) in fm**2, nuclear magnetic moments (NMagM)
  in nuclear magnetons)

  Atom         1           2           3           4           5           6           7           8           9          10
 IAtWgt=          12          12          12          12          12          12          12          12          12          12
 AtmWgt=  12.0000000  12.0000000  12.0000000  12.0000000  12.0000000  12.0000000  12.0000000  12.0000000  12.0000000  12.0000000
 NucSpn=           0           0           0           0           0           0           0           0           0           0
 AtZEff=   0.0000000   0.0000000   0.0000000   0.0000000   0.0000000   0.0000000   0.0000000   0.0000000   0.0000000   0.0000000
 NQMom=    0.0000000   0.0000000   0.0000000   0.0000000   0.0000000   0.0000000   0.0000000   0.0000000   0.0000000   0.0000000
 NMagM=    0.0000000   0.0000000   0.0000000   0.0000000   0.0000000   0.0000000   0.0000000   0.0000000   0.0000000   0.0000000
 AtZNuc=   6.0000000   6.0000000   6.0000000   6.0000000   6.0000000   6.0000000   6.0000000   6.0000000   6.0000000   6.0000000

  Atom        11          12          13          14          15          16          17          18          19          20
 IAtWgt=          12           1          12          12          12           1           1           1           1           1
 AtmWgt=  12.0000000   1.0078250  12.0000000  12.0000000  12.0000000   1.0078250   1.0078250   1.0078250   1.0078250   1.0078250
 NucSpn=           0           1           0           0           0           1           1           1           1           1
 AtZEff=   0.0000000   0.0000000   0.0000000   0.0000000   0.0000000   0.0000000   0.0000000   0.0000000   0.0000000   0.0000000
 NQMom=    0.0000000   0.0000000   0.0000000   0.0000000   0.0000000   0.0000000   0.0000000   0.0000000   0.0000000   0.0000000
 NMagM=    0.0000000   2.7928460   0.0000000   0.0000000   0.0000000   2.7928460   2.7928460   2.7928460   2.7928460   2.7928460
 AtZNuc=   6.0000000   1.0000000   6.0000000   6.0000000   6.0000000   1.0000000   1.0000000   1.0000000   1.0000000   1.0000000

  Atom        21          22          23          24          25          26
 IAtWgt=           1          16          16          14           1           1
 AtmWgt=   1.0078250  15.9949146  15.9949146  14.0030740   1.0078250   1.0078250
 NucSpn=           1           0           0           2           1           1
 AtZEff=   0.0000000   0.0000000   0.0000000   0.0000000   0.0000000   0.0000000
 NQMom=    0.0000000   0.0000000   0.0000000   2.0440000   0.0000000   0.0000000
 NMagM=    2.7928460   0.0000000   0.0000000   0.4037610   2.7928460   2.7928460
 AtZNuc=   1.0000000   8.0000000   8.0000000   7.0000000   1.0000000   1.0000000
 Leave Link  101 at Sun May 30 22:19:13 2021, MaxMem=    33554432 cpu:         0.1
 (Enter /opt/app/gaussian09/e01/g09/l103.exe)

 GradGradGradGradGradGradGradGradGradGradGradGradGradGradGradGradGradGrad
 Berny optimization.
 Initialization pass.
                           ----------------------------
                           !    Initial Parameters    !
                           ! (Angstroms and Degrees)  !
 --------------------------                            --------------------------
 ! Name  Definition              Value          Derivative Info.                !
 --------------------------------------------------------------------------------
 ! R1    R(1,2)                  1.3646         estimate D2E/DX2                !
 ! R2    R(1,6)                  1.4258         estimate D2E/DX2                !
 ! R3    R(1,16)                 1.1            estimate D2E/DX2                !
 ! R4    R(2,3)                  1.4328         estimate D2E/DX2                !
 ! R5    R(2,17)                 1.1005         estimate D2E/DX2                !
 ! R6    R(3,4)                  1.4288         estimate D2E/DX2                !
 ! R7    R(3,7)                  1.3991         estimate D2E/DX2                !
 ! R8    R(4,5)                  1.4328         estimate D2E/DX2                !
 ! R9    R(4,8)                  1.3991         estimate D2E/DX2                !
 ! R10   R(5,6)                  1.3646         estimate D2E/DX2                !
 ! R11   R(5,18)                 1.1005         estimate D2E/DX2                !
 ! R12   R(6,19)                 1.1            estimate D2E/DX2                !
 ! R13   R(7,10)                 1.3991         estimate D2E/DX2                !
 ! R14   R(7,23)                 1.43           estimate D2E/DX2                !
 ! R15   R(8,9)                  1.3991         estimate D2E/DX2                !
 ! R16   R(8,22)                 1.43           estimate D2E/DX2                !
 ! R17   R(9,10)                 1.4287         estimate D2E/DX2                !
 ! R18   R(9,15)                 1.4328         estimate D2E/DX2                !
 ! R19   R(10,11)                1.4328         estimate D2E/DX2                !
 ! R20   R(11,12)                1.1005         estimate D2E/DX2                !
 ! R21   R(11,13)                1.3646         estimate D2E/DX2                !
 ! R22   R(13,14)                1.4258         estimate D2E/DX2                !
 ! R23   R(13,20)                1.1            estimate D2E/DX2                !
 ! R24   R(14,15)                1.3647         estimate D2E/DX2                !
 ! R25   R(14,21)                1.1            estimate D2E/DX2                !
 ! R26   R(15,24)                1.47           estimate D2E/DX2                !
 ! R27   R(24,25)                1.0            estimate D2E/DX2                !
 ! R28   R(24,26)                1.0            estimate D2E/DX2                !
 ! A1    A(2,1,6)              120.4466         estimate D2E/DX2                !
 ! A2    A(2,1,16)             120.9594         estimate D2E/DX2                !
 ! A3    A(6,1,16)             118.5939         estimate D2E/DX2                !
 ! A4    A(1,2,3)              120.7635         estimate D2E/DX2                !
 ! A5    A(1,2,17)             121.155          estimate D2E/DX2                !
 ! A6    A(3,2,17)             118.0813         estimate D2E/DX2                !
 ! A7    A(2,3,4)              118.7901         estimate D2E/DX2                !
 ! A8    A(2,3,7)              121.7006         estimate D2E/DX2                !
 ! A9    A(4,3,7)              119.5092         estimate D2E/DX2                !
 ! A10   A(3,4,5)              118.7868         estimate D2E/DX2                !
 ! A11   A(3,4,8)              119.5145         estimate D2E/DX2                !
 ! A12   A(5,4,8)              121.6986         estimate D2E/DX2                !
 ! A13   A(4,5,6)              120.765          estimate D2E/DX2                !
 ! A14   A(4,5,18)             118.0759         estimate D2E/DX2                !
 ! A15   A(6,5,18)             121.1591         estimate D2E/DX2                !
 ! A16   A(1,6,5)              120.4476         estimate D2E/DX2                !
 ! A17   A(1,6,19)             118.5627         estimate D2E/DX2                !
 ! A18   A(5,6,19)             120.9896         estimate D2E/DX2                !
 ! A19   A(3,7,10)             120.9763         estimate D2E/DX2                !
 ! A20   A(3,7,23)             119.4985         estimate D2E/DX2                !
 ! A21   A(10,7,23)            119.5252         estimate D2E/DX2                !
 ! A22   A(4,8,9)              120.9759         estimate D2E/DX2                !
 ! A23   A(4,8,22)             119.499          estimate D2E/DX2                !
 ! A24   A(9,8,22)             119.5251         estimate D2E/DX2                !
 ! A25   A(8,9,10)             119.5096         estimate D2E/DX2                !
 ! A26   A(8,9,15)             121.6954         estimate D2E/DX2                !
 ! A27   A(10,9,15)            118.7949         estimate D2E/DX2                !
 ! A28   A(7,10,9)             119.5142         estimate D2E/DX2                !
 ! A29   A(7,10,11)            121.7035         estimate D2E/DX2                !
 ! A30   A(9,10,11)            118.7822         estimate D2E/DX2                !
 ! A31   A(10,11,12)           118.0746         estimate D2E/DX2                !
 ! A32   A(10,11,13)           120.7675         estimate D2E/DX2                !
 ! A33   A(12,11,13)           121.1578         estimate D2E/DX2                !
 ! A34   A(11,13,14)           120.4489         estimate D2E/DX2                !
 ! A35   A(11,13,20)           120.9732         estimate D2E/DX2                !
 ! A36   A(14,13,20)           118.5779         estimate D2E/DX2                !
 ! A37   A(13,14,15)           120.4423         estimate D2E/DX2                !
 ! A38   A(13,14,21)           118.5802         estimate D2E/DX2                !
 ! A39   A(15,14,21)           120.9774         estimate D2E/DX2                !
 ! A40   A(9,15,14)            120.7641         estimate D2E/DX2                !
 ! A41   A(9,15,24)            118.0731         estimate D2E/DX2                !
 ! A42   A(14,15,24)           121.1628         estimate D2E/DX2                !
 ! A43   A(15,24,25)           109.4712         estimate D2E/DX2                !
 ! A44   A(15,24,26)           109.4712         estimate D2E/DX2                !
 ! A45   A(25,24,26)           109.4713         estimate D2E/DX2                !
 ! D1    D(6,1,2,3)              0.1607         estimate D2E/DX2                !
 ! D2    D(6,1,2,17)           179.9717         estimate D2E/DX2                !
 ! D3    D(16,1,2,3)          -179.854          estimate D2E/DX2                !
 ! D4    D(16,1,2,17)           -0.0429         estimate D2E/DX2                !
 ! D5    D(2,1,6,5)              0.0013         estimate D2E/DX2                !
 ! D6    D(2,1,6,19)           179.9091         estimate D2E/DX2                !
 ! D7    D(16,1,6,5)          -179.9844         estimate D2E/DX2                !
 ! D8    D(16,1,6,19)           -0.0766         estimate D2E/DX2                !
 ! D9    D(1,2,3,4)             -0.2525         estimate D2E/DX2                !
 ! D10   D(1,2,3,7)            179.7643         estimate D2E/DX2                !
 ! D11   D(17,2,3,4)           179.9308         estimate D2E/DX2                !
 ! D12   D(17,2,3,7)            -0.0524         estimate D2E/DX2                !
 ! D13   D(2,3,4,5)              0.1839         estimate D2E/DX2                !
 ! D14   D(2,3,4,8)           -179.9227         estimate D2E/DX2                !
 ! D15   D(7,3,4,5)           -179.8326         estimate D2E/DX2                !
 ! D16   D(7,3,4,8)              0.0609         estimate D2E/DX2                !
 ! D17   D(2,3,7,10)          -179.9531         estimate D2E/DX2                !
 ! D18   D(2,3,7,23)            -0.021          estimate D2E/DX2                !
 ! D19   D(4,3,7,10)             0.0639         estimate D2E/DX2                !
 ! D20   D(4,3,7,23)           179.996          estimate D2E/DX2                !
 ! D21   D(3,4,5,6)             -0.0283         estimate D2E/DX2                !
 ! D22   D(3,4,5,18)          -179.98           estimate D2E/DX2                !
 ! D23   D(8,4,5,6)           -179.9193         estimate D2E/DX2                !
 ! D24   D(8,4,5,18)             0.129          estimate D2E/DX2                !
 ! D25   D(3,4,8,9)             -0.0966         estimate D2E/DX2                !
 ! D26   D(3,4,8,22)           179.9991         estimate D2E/DX2                !
 ! D27   D(5,4,8,9)            179.7937         estimate D2E/DX2                !
 ! D28   D(5,4,8,22)            -0.1107         estimate D2E/DX2                !
 ! D29   D(4,5,6,1)             -0.0673         estimate D2E/DX2                !
 ! D30   D(4,5,6,19)          -179.9728         estimate D2E/DX2                !
 ! D31   D(18,5,6,1)           179.8829         estimate D2E/DX2                !
 ! D32   D(18,5,6,19)           -0.0226         estimate D2E/DX2                !
 ! D33   D(3,7,10,9)            -0.1515         estimate D2E/DX2                !
 ! D34   D(3,7,10,11)          179.9003         estimate D2E/DX2                !
 ! D35   D(23,7,10,9)          179.9164         estimate D2E/DX2                !
 ! D36   D(23,7,10,11)          -0.0317         estimate D2E/DX2                !
 ! D37   D(4,8,9,10)             0.0089         estimate D2E/DX2                !
 ! D38   D(4,8,9,15)          -179.9202         estimate D2E/DX2                !
 ! D39   D(22,8,9,10)          179.9133         estimate D2E/DX2                !
 ! D40   D(22,8,9,15)           -0.0159         estimate D2E/DX2                !
 ! D41   D(8,9,10,7)             0.115          estimate D2E/DX2                !
 ! D42   D(8,9,10,11)         -179.9353         estimate D2E/DX2                !
 ! D43   D(15,9,10,7)         -179.9538         estimate D2E/DX2                !
 ! D44   D(15,9,10,11)          -0.0041         estimate D2E/DX2                !
 ! D45   D(8,9,15,14)          179.9107         estimate D2E/DX2                !
 ! D46   D(8,9,15,24)           -0.1009         estimate D2E/DX2                !
 ! D47   D(10,9,15,14)          -0.0189         estimate D2E/DX2                !
 ! D48   D(10,9,15,24)         179.9695         estimate D2E/DX2                !
 ! D49   D(7,10,11,12)          -0.106          estimate D2E/DX2                !
 ! D50   D(7,10,11,13)        -179.9865         estimate D2E/DX2                !
 ! D51   D(9,10,11,12)         179.9455         estimate D2E/DX2                !
 ! D52   D(9,10,11,13)           0.065          estimate D2E/DX2                !
 ! D53   D(10,11,13,14)         -0.1018         estimate D2E/DX2                !
 ! D54   D(10,11,13,20)        179.9569         estimate D2E/DX2                !
 ! D55   D(12,11,13,14)       -179.9786         estimate D2E/DX2                !
 ! D56   D(12,11,13,20)          0.0801         estimate D2E/DX2                !
 ! D57   D(11,13,14,15)          0.078          estimate D2E/DX2                !
 ! D58   D(11,13,14,21)        179.9999         estimate D2E/DX2                !
 ! D59   D(20,13,14,15)       -179.9793         estimate D2E/DX2                !
 ! D60   D(20,13,14,21)         -0.0574         estimate D2E/DX2                !
 ! D61   D(13,14,15,9)          -0.0166         estimate D2E/DX2                !
 ! D62   D(13,14,15,24)        179.9954         estimate D2E/DX2                !
 ! D63   D(21,14,15,9)        -179.9366         estimate D2E/DX2                !
 ! D64   D(21,14,15,24)          0.0754         estimate D2E/DX2                !
 ! D65   D(9,15,24,25)         120.0674         estimate D2E/DX2                !
 ! D66   D(9,15,24,26)        -119.9326         estimate D2E/DX2                !
 ! D67   D(14,15,24,25)        -59.9443         estimate D2E/DX2                !
 ! D68   D(14,15,24,26)         60.0558         estimate D2E/DX2                !
 --------------------------------------------------------------------------------
 Trust Radius=3.00D-01 FncErr=1.00D-07 GrdErr=1.00D-06
 Number of steps in this run=    151 maximum allowed number of steps=    156.
 GradGradGradGradGradGradGradGradGradGradGradGradGradGradGradGradGradGrad

 Leave Link  103 at Sun May 30 22:19:14 2021, MaxMem=    33554432 cpu:         0.0
 (Enter /opt/app/gaussian09/e01/g09/l202.exe)
                          Input orientation:                          
 ---------------------------------------------------------------------
 Center     Atomic      Atomic             Coordinates (Angstroms)
 Number     Number       Type             X           Y           Z
 ---------------------------------------------------------------------
      1          6           0       -3.284813   -3.197997   -0.012916
      2          6           0       -1.920190   -3.197997   -0.012916
      3          6           0       -1.187299   -1.966776   -0.012916
      4          6           0       -1.911296   -0.735029   -0.018434
      5          6           0       -3.343536   -0.776520   -0.019734
      6          6           0       -4.007319   -1.968813   -0.016363
      7          6           0        0.211602   -1.943887   -0.008020
      8          6           0       -1.210919    0.476138   -0.020155
      9          6           0        0.188022    0.499022   -0.014530
     10          6           0        0.911991   -0.732681   -0.007110
     11          6           0        2.344173   -0.691057    0.000000
     12          1           0        2.890043   -1.646584    0.006601
     13          6           0        3.007910    0.501298    0.001042
     14          6           0        2.285427    1.730413   -0.007130
     15          6           0        0.920784    1.730268   -0.014497
     16          1           0       -3.850685   -4.141275   -0.010512
     17          1           0       -1.350864   -4.139731   -0.009810
     18          1           0       -3.889349    0.179026   -0.024338
     19          1           0       -5.106717   -2.004978   -0.017794
     20          1           0        4.107316    0.537202    0.007202
     21          1           0        2.851507    2.673590   -0.006035
     22          8           0       -1.935870    1.708743   -0.025699
     23          8           0        0.935987   -3.176824   -0.002410
     24          7           0        0.160001    2.988059   -0.022875
     25          1           0        0.387116    3.520434    0.792598
     26          1           0        0.394573    3.514068   -0.840366
 ---------------------------------------------------------------------
                    Distance matrix (angstroms):
                    1          2          3          4          5
     1  C    0.000000
     2  C    1.364623   0.000000
     3  C    2.432174   1.432841   0.000000
     4  C    2.820069   2.462990   1.428777   0.000000
     5  C    2.422199   2.808827   2.462948   1.432841   0.000000
     6  C    1.425805   2.422192   2.820023   2.432188   1.364618
     7  C    3.714530   2.473328   1.399097   2.442978   3.741910
     8  C    4.219047   3.741976   2.443039   1.399091   2.473299
     9  C    5.072330   4.255879   2.823415   2.435166   3.754855
    10  C    4.867338   3.754872   2.435168   2.823311   4.255772
    11  C    6.162013   4.946686   3.754853   4.255736   5.688385
    12  H    6.366797   5.054266   4.089942   4.887168   6.294062
    13  C    7.299544   6.162073   4.867377   5.072225   6.478743
    14  C    7.437529   6.478925   5.072383   4.867342   6.161988
    15  C    6.478800   5.688491   4.255837   3.754781   4.946558
    16  H    1.099996   2.148625   3.438325   3.919669   3.402773
    17  H    2.151054   1.100457   2.179105   3.450530   3.909224
    18  H    3.430726   3.909220   3.450460   2.179042   1.100455
    19  H    2.177763   3.402539   3.919607   3.438530   2.148935
    20  H    8.282251   7.091047   5.856898   6.151660   7.565830
    21  H    8.492939   7.566021   6.151829   5.856887   7.090980
    22  O    5.088802   4.906782   3.750995   2.443906   2.856237
    23  O    4.220866   2.856275   2.443905   3.750952   4.906738
    24  N    7.080546   6.526453   5.134755   4.260479   5.142649
    25  H    7.698651   7.149114   5.765163   4.904022   5.748170
    26  H    7.698984   7.148049   5.764255   4.903817   5.749437
                    6          7          8          9         10
     6  C    0.000000
     7  C    4.219003   0.000000
     8  C    3.714519   2.807175   0.000000
     9  C    4.867350   2.443031   1.399139   0.000000
    10  C    5.072250   1.399130   2.442982   1.428733   0.000000
    11  C    6.478764   2.473359   3.741848   2.462821   1.432804
    12  H    6.904923   2.694930   4.617852   3.450361   2.179013
    13  C    7.437418   3.714613   4.218957   2.819932   2.432210
    14  C    7.299521   4.219151   3.714540   2.432177   2.820134
    15  C    6.161932   3.741978   2.473263   1.432797   2.462976
    16  H    2.178109   4.618517   5.318737   6.151709   5.856757
    17  H    3.430697   2.695002   4.618002   4.887353   4.090050
    18  H    2.151091   4.617881   2.694862   4.089920   4.887164
    19  H    1.099994   5.318679   4.618786   5.856986   6.151723
    20  H    8.492819   4.618725   5.318656   3.919540   3.438446
    21  H    8.282240   5.318853   4.618690   3.438455   3.919746
    22  O    4.220830   4.237175   1.430000   2.444272   3.751161
    23  O    5.088788   1.430000   4.237175   3.751193   2.444266
    24  N    6.475892   4.932239   2.861674   2.489209   3.796004
    25  H    7.077945   5.525450   3.532990   3.133692   4.359360
    26  H    7.079379   5.524088   3.532614   3.132917   4.358545
                   11         12         13         14         15
    11  C    0.000000
    12  H    1.100477   0.000000
    13  C    1.364646   2.151121   0.000000
    14  C    2.422193   3.430723   1.425753   0.000000
    15  C    2.808747   3.909163   2.422128   1.364663   0.000000
    16  H    7.090866   7.187572   8.282146   8.492856   7.565841
    17  H    5.054379   4.919486   6.366960   6.905158   6.294227
    18  H    6.294000   7.020966   6.904831   6.366707   5.054090
    19  H    7.565875   8.004824   8.492876   8.282334   7.091040
    20  H    2.148801   2.500135   1.100009   2.177897   3.402626
    21  H    3.402686   4.320364   2.177927   1.100014   2.148865
    22  O    4.906982   5.877814   5.089165   4.221394   2.856757
    23  O    2.856927   2.481945   4.221547   5.089400   4.907131
    24  N    4.278671   5.379026   3.780891   2.469688   1.470000
    25  H    4.711151   5.794870   4.075575   2.728979   2.034920
    26  H    4.710651   5.794571   4.076062   2.729659   2.034920
                   16         17         18         19         20
    16  H    0.000000
    17  H    2.499822   0.000000
    18  H    4.320496   5.009569   0.000000
    19  H    2.478192   4.320147   2.500380   0.000000
    20  H    9.231373   7.187887   8.004745   9.558332   0.000000
    21  H    9.558336   8.005078   7.187651   9.231601   2.478182
    22  O    6.155441   5.877681   2.481152   4.883242   6.155785
    23  O    4.882874   2.481316   5.877591   6.155301   4.883791
    24  N    8.180047   7.286170   4.928276   7.257325   4.646386
    25  H    8.792367   7.895731   5.488218   7.833844   4.832847
    26  H    8.792902   7.894112   5.490026   7.835858   4.833691
                   21         22         23         24         25
    21  H    0.000000
    22  O    4.883677   0.000000
    23  O    6.156020   5.667175   0.000000
    24  N    2.709867   2.455470   6.213563   0.000000
    25  H    2.725470   3.057466   6.766578   1.000000   0.000000
    26  H    2.727460   3.058405   6.764860   1.000000   1.632993
                   26
    26  H    0.000000
 Stoichiometry    C14H9NO2
 Framework group  C1[X(C14H9NO2)]
 Deg. of freedom    72
 Full point group                 C1      NOp   1
 Largest Abelian subgroup         C1      NOp   1
 Largest concise Abelian subgroup C1      NOp   1
                         Standard orientation:                         
 ---------------------------------------------------------------------
 Center     Atomic      Atomic             Coordinates (Angstroms)
 Number     Number       Type             X           Y           Z
 ---------------------------------------------------------------------
      1          6           0       -3.926017    0.281649   -0.001920
      2          6           0       -2.878590    1.156330    0.002958
      3          6           0       -1.526867    0.681063    0.001992
      4          6           0       -1.293058   -0.728453    0.001334
      5          6           0       -2.418982   -1.614634   -0.002365
      6          6           0       -3.692705   -1.124935   -0.004636
      7          6           0       -0.438453    1.560169    0.002030
      8          6           0        0.020852   -1.209176    0.002031
      9          6           0        1.109294   -0.330038    0.001341
     10          6           0        0.875494    1.079436    0.000096
     11          6           0        2.001464    1.965504   -0.002016
     12          1           0        1.807984    3.048837   -0.003882
     13          6           0        3.275195    1.475747   -0.004158
     14          6           0        3.508477    0.069210   -0.002148
     15          6           0        2.460934   -0.805407    0.000341
     16          1           0       -4.964976    0.642970   -0.003600
     17          1           0       -3.045227    2.244096    0.004630
     18          1           0       -2.225445   -2.697937   -0.002495
     19          1           0       -4.559740   -1.801863   -0.007030
     20          1           0        4.142073    2.152902   -0.006492
     21          1           0        4.547533   -0.291884   -0.003967
     22          8           0        0.254478   -2.619963    0.001393
     23          8           0       -0.672727    2.970848    0.002600
     24          7           0        2.683199   -2.258505    0.002336
     25          1           0        3.199478   -2.517866   -0.813867
     26          1           0        3.199689   -2.515592    0.819125
 ---------------------------------------------------------------------
 Rotational constants (GHZ):      0.8646475      0.4134448      0.2801183
 Leave Link  202 at Sun May 30 22:19:14 2021, MaxMem=    33554432 cpu:         0.0
 (Enter /opt/app/gaussian09/e01/g09/l301.exe)
 Standard basis: 6-31G(d) (6D, 7F)
 Ernie: Thresh=  0.10000D-02 Tol=  0.10000D-05 Strict=F.
 There are   273 symmetry adapted cartesian basis functions of A   symmetry.
 There are   273 symmetry adapted basis functions of A   symmetry.
   273 basis functions,   512 primitive gaussians,   273 cartesian basis functions
    58 alpha electrons       58 beta electrons
       nuclear repulsion energy      1097.5503994022 Hartrees.
 IExCor=  402 DFT=T Ex+Corr=B3LYP ExCW=0 ScaHFX=  0.200000
 ScaDFX=  0.800000  0.720000  1.000000  0.810000 ScalE2=  1.000000  1.000000
 IRadAn=      5 IRanWt=     -1 IRanGd=            0 ICorTp=0 IEmpDi=  4
 NAtoms=   26 NActive=   26 NUniq=   26 SFac= 1.00D+00 NAtFMM=   60 NAOKFM=F Big=F
 Integral buffers will be    131072 words long.
 Raffenetti 2 integral format.
 Two-electron integral symmetry is turned on.
 Leave Link  301 at Sun May 30 22:19:15 2021, MaxMem=    33554432 cpu:         0.1
 (Enter /opt/app/gaussian09/e01/g09/l302.exe)
 NPDir=0 NMtPBC=     1 NCelOv=     1 NCel=       1 NClECP=     1 NCelD=      1
         NCelK=      1 NCelE2=     1 NClLst=     1 CellRange=     0.0.
 One-electron integrals computed using PRISM.
 NBasis=   273 RedAO= T EigKep=  1.74D-04  NBF=   273
 NBsUse=   273 1.00D-06 EigRej= -1.00D+00 NBFU=   273
 Precomputing XC quadrature grid using
 IXCGrd= 4 IRadAn=           5 IRanWt=          -1 IRanGd=           0 AccXCQ= 0.00D+00.
 Generated NRdTot=       0 NPtTot=           0 NUsed=           0 NTot=          32
 NSgBfM=   272   272   272   272   272 MxSgAt=    26 MxSgA2=    26.
 Leave Link  302 at Sun May 30 22:19:28 2021, MaxMem=    33554432 cpu:         1.3
 (Enter /opt/app/gaussian09/e01/g09/l303.exe)
 DipDrv:  MaxL=1.
 Leave Link  303 at Sun May 30 22:19:28 2021, MaxMem=    33554432 cpu:         0.1
 (Enter /opt/app/gaussian09/e01/g09/l401.exe)
 ExpMin= 1.61D-01 ExpMax= 5.48D+03 ExpMxC= 8.25D+02 IAcc=3 IRadAn=         5 AccDes= 0.00D+00
 Harris functional with IExCor=  402 and IRadAn=       5 diagonalized for initial guess.
 HarFok:  IExCor=  402 AccDes= 0.00D+00 IRadAn=         5 IDoV= 1 UseB2=F ITyADJ=14
 ICtDFT=  3500011 ScaDFX=  1.000000  1.000000  1.000000  1.000000
 FoFCou: FMM=F IPFlag=           0 FMFlag=      100000 FMFlg1=           0
         NFxFlg=           0 DoJE=T BraDBF=F KetDBF=T FulRan=T
         wScrn=  0.000000 ICntrl=     500 IOpCl=  0 I1Cent=   200000004 NGrid=           0
         NMat0=    1 NMatS0=      1 NMatT0=    0 NMatD0=    1 NMtDS0=    0 NMtDT0=    0
 Petite list used in FoFCou.
 Harris En= -744.009771011837    
 JPrj=0 DoOrth=F DoCkMO=F.
 Leave Link  401 at Sun May 30 22:19:48 2021, MaxMem=    33554432 cpu:        18.5
 (Enter /opt/app/gaussian09/e01/g09/l502.exe)
 Closed shell SCF:
 Using DIIS extrapolation, IDIIS=  1040.
 Integral symmetry usage will be decided dynamically.
 IVT=      245824 IEndB=      245824 NGot=    33554432 MDV=    33400051
 LenX=    33400051 LenY=    33325081
 Requested convergence on RMS density matrix=1.00D-08 within 128 cycles.
 Requested convergence on MAX density matrix=1.00D-06.
 Requested convergence on             energy=1.00D-06.
 No special actions if energy rises.
 Fock matrices will be formed incrementally for  20 cycles.
 Integral accuracy reduced to 1.0D-05 until final iterations.

 Cycle   1  Pass 0  IDiag  1:
 FoFJK:  IHMeth= 1 ICntrl=       0 DoSepK=F KAlg= 0 I1Cent=   0 FoldK=F
 IRaf= 820000000 NMat=   1 IRICut=       1 DoRegI=T DoRafI=F ISym2E= 0.
 FoFCou: FMM=F IPFlag=           0 FMFlag=      100000 FMFlg1=           0
         NFxFlg=           0 DoJE=F BraDBF=F KetDBF=F FulRan=T
         wScrn=  0.000000 ICntrl=       0 IOpCl=  0 I1Cent=           0 NGrid=           0
         NMat0=    1 NMatS0=      1 NMatT0=    0 NMatD0=    1 NMtDS0=    0 NMtDT0=    0
 Symmetry not used in FoFCou.
 E= -743.672234827352    
 DIIS: error= 3.62D-02 at cycle   1 NSaved=   1.
 NSaved= 1 IEnMin= 1 EnMin= -743.672234827352     IErMin= 1 ErrMin= 3.62D-02
 ErrMax= 3.62D-02  0.00D+00 EMaxC= 1.00D-01 BMatC= 3.63D-01 BMatP= 3.63D-01
 IDIUse=3 WtCom= 6.38D-01 WtEn= 3.62D-01
 Coeff-Com:  0.100D+01
 Coeff-En:   0.100D+01
 Coeff:      0.100D+01
 Gap=    -0.042 Goal=   None    Shift=    0.000
 GapD=   -0.042 DampG=0.250 DampE=0.500 DampFc=0.2500 IDamp=-1.
 Damping current iteration by 2.50D-01
 RMSDP=8.90D-03 MaxDP=3.89D-01              OVMax= 9.06D-01

 Cycle   2  Pass 0  IDiag  1:
 RMSU=  2.19D-03    CP:  9.83D-01
 E= -743.717650415942     Delta-E=       -0.045415588591 Rises=F Damp=T
 DIIS: error= 2.57D-02 at cycle   2 NSaved=   2.
 NSaved= 2 IEnMin= 2 EnMin= -743.717650415942     IErMin= 2 ErrMin= 2.57D-02
 ErrMax= 2.57D-02  0.00D+00 EMaxC= 1.00D-01 BMatC= 1.02D-01 BMatP= 3.63D-01
 IDIUse=3 WtCom= 7.43D-01 WtEn= 2.57D-01
 Coeff-Com: -0.126D+00 0.113D+01
 Coeff-En:   0.355D+00 0.645D+00
 Coeff:     -0.206D-02 0.100D+01
 Gap=    -0.175 Goal=   None    Shift=    0.000
 RMSDP=4.31D-03 MaxDP=2.22D-01 DE=-4.54D-02 OVMax= 7.66D-01

 Cycle   3  Pass 0  IDiag  1:
 RMSU=  4.13D-03    CP:  9.39D-01  1.34D+00
 E= -743.370727186072     Delta-E=        0.346923229870 Rises=F Damp=F
 DIIS: error= 6.63D-02 at cycle   3 NSaved=   3.
 NSaved= 3 IEnMin= 2 EnMin= -743.717650415942     IErMin= 2 ErrMin= 2.57D-02
 ErrMax= 6.63D-02  0.00D+00 EMaxC= 1.00D-01 BMatC= 5.50D-01 BMatP= 1.02D-01
 IDIUse=2 WtCom= 0.00D+00 WtEn= 1.00D+00
 EnCoef did     3 forward-backward iterations
 Coeff-En:   0.791D-01 0.638D+00 0.283D+00
 Coeff:      0.791D-01 0.638D+00 0.283D+00
 Gap=     0.139 Goal=   None    Shift=    0.000
 RMSDP=4.38D-03 MaxDP=2.41D-01 DE= 3.47D-01 OVMax= 5.31D-01

 Cycle   4  Pass 0  IDiag  1:
 RMSU=  3.33D-03    CP:  9.41D-01  1.14D+00  3.18D-01
 E= -743.869670202222     Delta-E=       -0.498943016150 Rises=F Damp=F
 DIIS: error= 4.58D-02 at cycle   4 NSaved=   4.
 NSaved= 4 IEnMin= 4 EnMin= -743.869670202222     IErMin= 2 ErrMin= 2.57D-02
 ErrMax= 4.58D-02  0.00D+00 EMaxC= 1.00D-01 BMatC= 1.39D-01 BMatP= 1.02D-01
 IDIUse=2 WtCom= 0.00D+00 WtEn= 1.00D+00
 Coeff-En:   0.000D+00 0.000D+00 0.251D+00 0.749D+00
 Coeff:      0.000D+00 0.000D+00 0.251D+00 0.749D+00
 Gap=     0.089 Goal=   None    Shift=    0.000
 RMSDP=2.89D-03 MaxDP=1.63D-01 DE=-4.99D-01 OVMax= 3.97D-01

 Cycle   5  Pass 0  IDiag  1:
 RMSU=  1.59D-03    CP:  9.48D-01  1.03D+00  5.78D-01  3.56D-01
 E= -743.866282290932     Delta-E=        0.003387911290 Rises=F Damp=F
 DIIS: error= 4.74D-02 at cycle   5 NSaved=   5.
 NSaved= 5 IEnMin= 4 EnMin= -743.869670202222     IErMin= 2 ErrMin= 2.57D-02
 ErrMax= 4.74D-02  0.00D+00 EMaxC= 1.00D-01 BMatC= 1.49D-01 BMatP= 1.02D-01
 IDIUse=2 WtCom= 0.00D+00 WtEn= 1.00D+00
 Coeff-En:   0.000D+00 0.000D+00 0.000D+00 0.504D+00 0.496D+00
 Coeff:      0.000D+00 0.000D+00 0.000D+00 0.504D+00 0.496D+00
 Gap=     0.108 Goal=   None    Shift=    0.000
 RMSDP=1.56D-03 MaxDP=9.80D-02 DE= 3.39D-03 OVMax= 2.08D-01

 Cycle   6  Pass 0  IDiag  1:
 RMSU=  7.00D-04    CP:  9.44D-01  9.85D-01  4.73D-01  6.17D-01  3.72D-01
 E= -743.994670361542     Delta-E=       -0.128388070610 Rises=F Damp=F
 DIIS: error= 9.13D-03 at cycle   6 NSaved=   6.
 NSaved= 6 IEnMin= 6 EnMin= -743.994670361542     IErMin= 6 ErrMin= 9.13D-03
 ErrMax= 9.13D-03  0.00D+00 EMaxC= 1.00D-01 BMatC= 1.39D-02 BMatP= 1.02D-01
 IDIUse=3 WtCom= 9.09D-01 WtEn= 9.13D-02
 Coeff-Com: -0.795D-01 0.976D-01-0.440D-01 0.216D+00 0.305D+00 0.505D+00
 Coeff-En:   0.000D+00 0.000D+00 0.000D+00 0.411D-01 0.000D+00 0.959D+00
 Coeff:     -0.722D-01 0.887D-01-0.400D-01 0.200D+00 0.277D+00 0.546D+00
 Gap=     0.068 Goal=   None    Shift=    0.000
 RMSDP=6.74D-04 MaxDP=2.46D-02 DE=-1.28D-01 OVMax= 6.39D-02

 Cycle   7  Pass 0  IDiag  1:
 RMSU=  3.14D-04    CP:  9.45D-01  1.08D+00  4.68D-01  6.39D-01  5.29D-01
                    CP:  2.98D-01
 E= -744.006390391660     Delta-E=       -0.011720030117 Rises=F Damp=F
 DIIS: error= 4.93D-03 at cycle   7 NSaved=   7.
 NSaved= 7 IEnMin= 7 EnMin= -744.006390391660     IErMin= 7 ErrMin= 4.93D-03
 ErrMax= 4.93D-03  0.00D+00 EMaxC= 1.00D-01 BMatC= 3.02D-03 BMatP= 1.39D-02
 IDIUse=3 WtCom= 9.51D-01 WtEn= 4.93D-02
 Coeff-Com: -0.504D-01 0.657D-01-0.366D-01 0.881D-01 0.119D+00 0.367D+00
 Coeff-Com:  0.448D+00
 Coeff-En:   0.000D+00 0.000D+00 0.000D+00 0.000D+00 0.000D+00 0.140D+00
 Coeff-En:   0.860D+00
 Coeff:     -0.479D-01 0.624D-01-0.348D-01 0.837D-01 0.113D+00 0.356D+00
 Coeff:      0.468D+00
 Gap=     0.066 Goal=   None    Shift=    0.000
 RMSDP=2.41D-04 MaxDP=1.06D-02 DE=-1.17D-02 OVMax= 2.39D-02

 Cycle   8  Pass 0  IDiag  1:
 RMSU=  7.93D-05    CP:  9.45D-01  1.06D+00  4.59D-01  6.52D-01  5.15D-01
                    CP:  5.18D-01  5.23D-01
 E= -744.008838593785     Delta-E=       -0.002448202125 Rises=F Damp=F
 DIIS: error= 2.84D-03 at cycle   8 NSaved=   8.
 NSaved= 8 IEnMin= 8 EnMin= -744.008838593785     IErMin= 8 ErrMin= 2.84D-03
 ErrMax= 2.84D-03  0.00D+00 EMaxC= 1.00D-01 BMatC= 3.89D-04 BMatP= 3.02D-03
 IDIUse=3 WtCom= 9.72D-01 WtEn= 2.84D-02
 Coeff-Com: -0.182D-01 0.307D-01-0.142D-01 0.377D-01 0.213D-01 0.945D-01
 Coeff-Com:  0.209D+00 0.639D+00
 Coeff-En:   0.000D+00 0.000D+00 0.000D+00 0.000D+00 0.000D+00 0.000D+00
 Coeff-En:   0.000D+00 0.100D+01
 Coeff:     -0.176D-01 0.299D-01-0.138D-01 0.367D-01 0.207D-01 0.918D-01
 Coeff:      0.203D+00 0.649D+00
 Gap=     0.065 Goal=   None    Shift=    0.000
 RMSDP=7.78D-05 MaxDP=4.52D-03 DE=-2.45D-03 OVMax= 1.35D-02

 Cycle   9  Pass 0  IDiag  1:
 RMSU=  4.30D-05    CP:  9.45D-01  1.07D+00  4.50D-01  6.64D-01  5.13D-01
                    CP:  4.91D-01  5.91D-01  7.38D-01
 E= -744.009280271805     Delta-E=       -0.000441678020 Rises=F Damp=F
 DIIS: error= 7.15D-04 at cycle   9 NSaved=   9.
 NSaved= 9 IEnMin= 9 EnMin= -744.009280271805     IErMin= 9 ErrMin= 7.15D-04
 ErrMax= 7.15D-04  0.00D+00 EMaxC= 1.00D-01 BMatC= 3.45D-05 BMatP= 3.89D-04
 IDIUse=3 WtCom= 9.93D-01 WtEn= 7.15D-03
 Coeff-Com:  0.141D-03 0.289D-02-0.875D-03 0.845D-02-0.964D-02-0.303D-01
 Coeff-Com: -0.107D-01 0.320D+00 0.720D+00
 Coeff-En:   0.000D+00 0.000D+00 0.000D+00 0.000D+00 0.000D+00 0.000D+00
 Coeff-En:   0.000D+00 0.000D+00 0.100D+01
 Coeff:      0.140D-03 0.287D-02-0.869D-03 0.839D-02-0.957D-02-0.301D-01
 Coeff:     -0.106D-01 0.318D+00 0.722D+00
 Gap=     0.065 Goal=   None    Shift=    0.000
 RMSDP=3.58D-05 MaxDP=1.59D-03 DE=-4.42D-04 OVMax= 5.02D-03

 Cycle  10  Pass 0  IDiag  1:
 RMSU=  2.26D-05    CP:  9.45D-01  1.07D+00  4.47D-01  6.70D-01  5.10D-01
                    CP:  4.92D-01  5.74D-01  8.49D-01  8.71D-01
 E= -744.009309591579     Delta-E=       -0.000029319775 Rises=F Damp=F
 DIIS: error= 2.87D-04 at cycle  10 NSaved=  10.
 NSaved=10 IEnMin=10 EnMin= -744.009309591579     IErMin=10 ErrMin= 2.87D-04
 ErrMax= 2.87D-04  0.00D+00 EMaxC= 1.00D-01 BMatC= 8.63D-06 BMatP= 3.45D-05
 IDIUse=3 WtCom= 9.97D-01 WtEn= 2.87D-03
 Coeff-Com:  0.147D-02-0.133D-02 0.722D-03 0.992D-03-0.643D-02-0.240D-01
 Coeff-Com: -0.261D-01 0.128D+00 0.460D+00 0.467D+00
 Coeff-En:   0.000D+00 0.000D+00 0.000D+00 0.000D+00 0.000D+00 0.000D+00
 Coeff-En:   0.000D+00 0.000D+00 0.247D+00 0.753D+00
 Coeff:      0.146D-02-0.132D-02 0.719D-03 0.990D-03-0.641D-02-0.240D-01
 Coeff:     -0.260D-01 0.128D+00 0.459D+00 0.467D+00
 Gap=     0.065 Goal=   None    Shift=    0.000
 RMSDP=1.34D-05 MaxDP=3.52D-04 DE=-2.93D-05 OVMax= 1.31D-03

 Cycle  11  Pass 0  IDiag  1:
 RMSU=  8.03D-06    CP:  9.45D-01  1.07D+00  4.47D-01  6.69D-01  5.09D-01
                    CP:  4.91D-01  5.79D-01  8.49D-01  9.58D-01  5.85D-01
 E= -744.009316988603     Delta-E=       -0.000007397024 Rises=F Damp=F
 DIIS: error= 2.03D-04 at cycle  11 NSaved=  11.
 NSaved=11 IEnMin=11 EnMin= -744.009316988603     IErMin=11 ErrMin= 2.03D-04
 ErrMax= 2.03D-04  0.00D+00 EMaxC= 1.00D-01 BMatC= 2.55D-06 BMatP= 8.63D-06
 IDIUse=3 WtCom= 9.98D-01 WtEn= 2.03D-03
 Coeff-Com:  0.183D-03-0.323D-03 0.389D-03-0.584D-03-0.155D-02-0.581D-02
 Coeff-Com: -0.666D-02 0.508D-01 0.169D+00 0.257D+00 0.537D+00
 Coeff-En:   0.000D+00 0.000D+00 0.000D+00 0.000D+00 0.000D+00 0.000D+00
 Coeff-En:   0.000D+00 0.000D+00 0.291D-01 0.000D+00 0.971D+00
 Coeff:      0.183D-03-0.322D-03 0.388D-03-0.583D-03-0.155D-02-0.580D-02
 Coeff:     -0.664D-02 0.507D-01 0.169D+00 0.257D+00 0.538D+00
 Gap=     0.065 Goal=   None    Shift=    0.000
 RMSDP=6.46D-06 MaxDP=3.13D-04 DE=-7.40D-06 OVMax= 8.12D-04

 Initial convergence to 1.0D-05 achieved.  Increase integral accuracy.
 Cycle  12  Pass 1  IDiag  1:
 E= -744.009314333908     Delta-E=        0.000002654695 Rises=F Damp=F
 DIIS: error= 8.43D-05 at cycle   1 NSaved=   1.
 NSaved= 1 IEnMin= 1 EnMin= -744.009314333908     IErMin= 1 ErrMin= 8.43D-05
 ErrMax= 8.43D-05  0.00D+00 EMaxC= 1.00D-01 BMatC= 6.30D-07 BMatP= 6.30D-07
 IDIUse=1 WtCom= 1.00D+00 WtEn= 0.00D+00
 Coeff-Com:  0.100D+01
 Coeff:      0.100D+01
 Gap=     0.065 Goal=   None    Shift=    0.000
 RMSDP=6.46D-06 MaxDP=3.13D-04 DE= 2.65D-06 OVMax= 1.61D-03

 Cycle  13  Pass 1  IDiag  1:
 RMSU=  4.83D-05    CP:  1.00D+00
 E= -744.009311437113     Delta-E=        0.000002896794 Rises=F Damp=F
 DIIS: error= 2.64D-04 at cycle   2 NSaved=   2.
 NSaved= 2 IEnMin= 1 EnMin= -744.009314333908     IErMin= 1 ErrMin= 8.43D-05
 ErrMax= 2.64D-04  0.00D+00 EMaxC= 1.00D-01 BMatC= 3.21D-06 BMatP= 6.30D-07
 IDIUse=3 WtCom= 3.81D-01 WtEn= 6.19D-01
 Coeff-Com:  0.734D+00 0.266D+00
 Coeff-En:   0.831D+00 0.169D+00
 Coeff:      0.794D+00 0.206D+00
 Gap=     0.065 Goal=   None    Shift=    0.000
 RMSDP=7.33D-06 MaxDP=4.39D-04 DE= 2.90D-06 OVMax= 1.31D-03

 Cycle  14  Pass 1  IDiag  1:
 RMSU=  7.21D-06    CP:  1.00D+00  9.72D-01
 E= -744.009314836279     Delta-E=       -0.000003399166 Rises=F Damp=F
 DIIS: error= 1.51D-05 at cycle   3 NSaved=   3.
 NSaved= 3 IEnMin= 3 EnMin= -744.009314836279     IErMin= 3 ErrMin= 1.51D-05
 ErrMax= 1.51D-05  0.00D+00 EMaxC= 1.00D-01 BMatC= 5.28D-08 BMatP= 6.30D-07
 IDIUse=1 WtCom= 1.00D+00 WtEn= 0.00D+00
 Coeff-Com:  0.158D+00 0.690D-01 0.773D+00
 Coeff:      0.158D+00 0.690D-01 0.773D+00
 Gap=     0.065 Goal=   None    Shift=    0.000
 RMSDP=2.38D-06 MaxDP=7.61D-05 DE=-3.40D-06 OVMax= 2.02D-04

 Cycle  15  Pass 1  IDiag  1:
 RMSU=  2.37D-06    CP:  1.00D+00  9.78D-01  1.01D+00
 E= -744.009314771979     Delta-E=        0.000000064301 Rises=F Damp=F
 DIIS: error= 2.62D-05 at cycle   4 NSaved=   4.
 NSaved= 4 IEnMin= 3 EnMin= -744.009314836279     IErMin= 3 ErrMin= 1.51D-05
 ErrMax= 2.62D-05  0.00D+00 EMaxC= 1.00D-01 BMatC= 1.07D-07 BMatP= 5.28D-08
 IDIUse=1 WtCom= 1.00D+00 WtEn= 0.00D+00
 Coeff-Com:  0.486D-02 0.222D-01 0.576D+00 0.396D+00
 Coeff:      0.486D-02 0.222D-01 0.576D+00 0.396D+00
 Gap=     0.065 Goal=   None    Shift=    0.000
 RMSDP=1.57D-06 MaxDP=5.92D-05 DE= 6.43D-08 OVMax= 1.54D-04

 Cycle  16  Pass 1  IDiag  1:
 RMSU=  4.29D-07    CP:  1.00D+00  9.81D-01  9.93D-01  3.68D-01
 E= -744.009314883887     Delta-E=       -0.000000111909 Rises=F Damp=F
 DIIS: error= 5.37D-06 at cycle   5 NSaved=   5.
 NSaved= 5 IEnMin= 5 EnMin= -744.009314883887     IErMin= 5 ErrMin= 5.37D-06
 ErrMax= 5.37D-06  0.00D+00 EMaxC= 1.00D-01 BMatC= 5.09D-09 BMatP= 5.28D-08
 IDIUse=1 WtCom= 1.00D+00 WtEn= 0.00D+00
 Coeff-Com: -0.218D-02 0.147D-01 0.374D+00 0.278D+00 0.335D+00
 Coeff:     -0.218D-02 0.147D-01 0.374D+00 0.278D+00 0.335D+00
 Gap=     0.065 Goal=   None    Shift=    0.000
 RMSDP=3.40D-07 MaxDP=1.64D-05 DE=-1.12D-07 OVMax= 2.94D-05

 Cycle  17  Pass 1  IDiag  1:
 RMSU=  2.20D-07    CP:  1.00D+00  9.81D-01  9.92D-01  4.07D-01  4.50D-01
 E= -744.009314887877     Delta-E=       -0.000000003989 Rises=F Damp=F
 DIIS: error= 1.89D-06 at cycle   6 NSaved=   6.
 NSaved= 6 IEnMin= 6 EnMin= -744.009314887877     IErMin= 6 ErrMin= 1.89D-06
 ErrMax= 1.89D-06  0.00D+00 EMaxC= 1.00D-01 BMatC= 5.79D-10 BMatP= 5.09D-09
 IDIUse=1 WtCom= 1.00D+00 WtEn= 0.00D+00
 Coeff-Com: -0.205D-02 0.996D-02 0.232D+00 0.177D+00 0.256D+00 0.327D+00
 Coeff:     -0.205D-02 0.996D-02 0.232D+00 0.177D+00 0.256D+00 0.327D+00
 Gap=     0.065 Goal=   None    Shift=    0.000
 RMSDP=1.04D-07 MaxDP=4.24D-06 DE=-3.99D-09 OVMax= 7.45D-06

 Cycle  18  Pass 1  IDiag  1:
 RMSU=  7.56D-08    CP:  1.00D+00  9.82D-01  9.91D-01  4.11D-01  5.80D-01
                    CP:  8.14D-01
 E= -744.009314888420     Delta-E=       -0.000000000543 Rises=F Damp=F
 DIIS: error= 4.95D-07 at cycle   7 NSaved=   7.
 NSaved= 7 IEnMin= 7 EnMin= -744.009314888420     IErMin= 7 ErrMin= 4.95D-07
 ErrMax= 4.95D-07  0.00D+00 EMaxC= 1.00D-01 BMatC= 2.23D-11 BMatP= 5.79D-10
 IDIUse=1 WtCom= 1.00D+00 WtEn= 0.00D+00
 Coeff-Com: -0.519D-03 0.327D-02 0.415D-01 0.355D-01 0.557D-01 0.132D+00
 Coeff-Com:  0.732D+00
 Coeff:     -0.519D-03 0.327D-02 0.415D-01 0.355D-01 0.557D-01 0.132D+00
 Coeff:      0.732D+00
 Gap=     0.065 Goal=   None    Shift=    0.000
 RMSDP=6.74D-08 MaxDP=2.82D-06 DE=-5.43D-10 OVMax= 1.34D-05

 Cycle  19  Pass 1  IDiag  1:
 RMSU=  3.37D-08    CP:  1.00D+00  9.82D-01  9.89D-01  4.15D-01  6.46D-01
                    CP:  1.01D+00  1.27D+00
 E= -744.009314888478     Delta-E=       -0.000000000058 Rises=F Damp=F
 DIIS: error= 1.05D-07 at cycle   8 NSaved=   8.
 NSaved= 8 IEnMin= 8 EnMin= -744.009314888478     IErMin= 8 ErrMin= 1.05D-07
 ErrMax= 1.05D-07  0.00D+00 EMaxC= 1.00D-01 BMatC= 5.96D-12 BMatP= 2.23D-11
 IDIUse=1 WtCom= 1.00D+00 WtEn= 0.00D+00
 Coeff-Com:  0.479D-03-0.161D-02-0.668D-01-0.479D-01-0.681D-01-0.365D-01
 Coeff-Com:  0.489D+00 0.732D+00
 Coeff:      0.479D-03-0.161D-02-0.668D-01-0.479D-01-0.681D-01-0.365D-01
 Coeff:      0.489D+00 0.732D+00
 Gap=     0.065 Goal=   None    Shift=    0.000
 RMSDP=6.44D-08 MaxDP=2.87D-06 DE=-5.80D-11 OVMax= 1.36D-05

 Cycle  20  Pass 1  IDiag  1:
 RMSU=  1.94D-08    CP:  1.00D+00  9.82D-01  9.88D-01  4.18D-01  7.10D-01
                    CP:  1.20D+00  1.68D+00  1.43D+00
 E= -744.009314888481     Delta-E=       -0.000000000003 Rises=F Damp=F
 DIIS: error= 6.92D-08 at cycle   9 NSaved=   9.
 NSaved= 9 IEnMin= 9 EnMin= -744.009314888481     IErMin= 9 ErrMin= 6.92D-08
 ErrMax= 6.92D-08  0.00D+00 EMaxC= 1.00D-01 BMatC= 1.14D-12 BMatP= 5.96D-12
 IDIUse=1 WtCom= 1.00D+00 WtEn= 0.00D+00
 Coeff-Com:  0.320D-03-0.155D-02-0.380D-01-0.287D-01-0.416D-01-0.418D-01
 Coeff-Com:  0.871D-01 0.317D+00 0.747D+00
 Coeff:      0.320D-03-0.155D-02-0.380D-01-0.287D-01-0.416D-01-0.418D-01
 Coeff:      0.871D-01 0.317D+00 0.747D+00
 Gap=     0.065 Goal=   None    Shift=    0.000
 RMSDP=3.11D-08 MaxDP=1.38D-06 DE=-3.18D-12 OVMax= 6.56D-06

 Cycle  21  Pass 1  IDiag  1:
 RMSU=  7.84D-09    CP:  1.00D+00  9.82D-01  9.89D-01  4.19D-01  7.43D-01
                    CP:  1.29D+00  1.85D+00  1.77D+00  1.24D+00
 E= -744.009314888483     Delta-E=       -0.000000000002 Rises=F Damp=F
 DIIS: error= 6.10D-08 at cycle  10 NSaved=  10.
 NSaved=10 IEnMin=10 EnMin= -744.009314888483     IErMin=10 ErrMin= 6.10D-08
 ErrMax= 6.10D-08  0.00D+00 EMaxC= 1.00D-01 BMatC= 6.46D-13 BMatP= 1.14D-12
 IDIUse=1 WtCom= 1.00D+00 WtEn= 0.00D+00
 Coeff-Com:  0.465D-04-0.641D-03-0.162D-02-0.257D-02-0.355D-02-0.192D-01
 Coeff-Com: -0.128D+00-0.704D-01 0.549D+00 0.677D+00
 Coeff:      0.465D-04-0.641D-03-0.162D-02-0.257D-02-0.355D-02-0.192D-01
 Coeff:     -0.128D+00-0.704D-01 0.549D+00 0.677D+00
 Gap=     0.065 Goal=   None    Shift=    0.000
 RMSDP=2.11D-08 MaxDP=9.41D-07 DE=-2.27D-12 OVMax= 4.47D-06

 Cycle  22  Pass 1  IDiag  1:
 RMSU=  3.09D-09    CP:  1.00D+00  9.82D-01  9.89D-01  4.20D-01  7.64D-01
                    CP:  1.35D+00  1.98D+00  1.99D+00  1.53D+00  8.18D-01
 E= -744.009314888470     Delta-E=        0.000000000013 Rises=F Damp=F
 DIIS: error= 2.53D-08 at cycle  11 NSaved=  11.
 NSaved=11 IEnMin=10 EnMin= -744.009314888483     IErMin=11 ErrMin= 2.53D-08
 ErrMax= 2.53D-08  0.00D+00 EMaxC= 1.00D-01 BMatC= 9.88D-14 BMatP= 6.46D-13
 IDIUse=1 WtCom= 1.00D+00 WtEn= 0.00D+00
 Coeff-Com: -0.304D-04-0.117D-03 0.604D-02 0.371D-02 0.575D-02-0.446D-02
 Coeff-Com: -0.821D-01-0.918D-01 0.176D+00 0.377D+00 0.610D+00
 Coeff:     -0.304D-04-0.117D-03 0.604D-02 0.371D-02 0.575D-02-0.446D-02
 Coeff:     -0.821D-01-0.918D-01 0.176D+00 0.377D+00 0.610D+00
 Gap=     0.065 Goal=   None    Shift=    0.000
 RMSDP=4.90D-09 MaxDP=2.06D-07 DE= 1.27D-11 OVMax= 9.80D-07

 SCF Done:  E(RB3LYP) =  -744.009314888     A.U. after   22 cycles
            NFock= 22  Conv=0.49D-08     -V/T= 2.0099
 KE= 7.367184999898D+02 PE=-3.925787057411D+03 EE= 1.347508843130D+03
 Leave Link  502 at Sun May 30 22:28:59 2021, MaxMem=    33554432 cpu:       543.6
 (Enter /opt/app/gaussian09/e01/g09/l601.exe)
 Copying SCF densities to generalized density rwf, IOpCl= 0 IROHF=0.

 **********************************************************************

            Population analysis using the SCF density.

 **********************************************************************

 Orbital symmetries:
       Occupied  (A) (A) (A) (A) (A) (A) (A) (A) (A) (A) (A) (A)
                 (A) (A) (A) (A) (A) (A) (A) (A) (A) (A) (A) (A)
                 (A) (A) (A) (A) (A) (A) (A) (A) (A) (A) (A) (A)
                 (A) (A) (A) (A) (A) (A) (A) (A) (A) (A) (A) (A)
                 (A) (A) (A) (A) (A) (A) (A) (A) (A) (A)
       Virtual   (A) (A) (A) (A) (A) (A) (A) (A) (A) (A) (A) (A)
                 (A) (A) (A) (A) (A) (A) (A) (A) (A) (A) (A) (A)
                 (A) (A) (A) (A) (A) (A) (A) (A) (A) (A) (A) (A)
                 (A) (A) (A) (A) (A) (A) (A) (A) (A) (A) (A) (A)
                 (A) (A) (A) (A) (A) (A) (A) (A) (A) (A) (A) (A)
                 (A) (A) (A) (A) (A) (A) (A) (A) (A) (A) (A) (A)
                 (A) (A) (A) (A) (A) (A) (A) (A) (A) (A) (A) (A)
                 (A) (A) (A) (A) (A) (A) (A) (A) (A) (A) (A) (A)
                 (A) (A) (A) (A) (A) (A) (A) (A) (A) (A) (A) (A)
                 (A) (A) (A) (A) (A) (A) (A) (A) (A) (A) (A) (A)
                 (A) (A) (A) (A) (A) (A) (A) (A) (A) (A) (A) (A)
                 (A) (A) (A) (A) (A) (A) (A) (A) (A) (A) (A) (A)
                 (A) (A) (A) (A) (A) (A) (A) (A) (A) (A) (A) (A)
                 (A) (A) (A) (A) (A) (A) (A) (A) (A) (A) (A) (A)
                 (A) (A) (A) (A) (A) (A) (A) (A) (A) (A) (A) (A)
                 (A) (A) (A) (A) (A) (A) (A) (A) (A) (A) (A) (A)
                 (A) (A) (A) (A) (A) (A) (A) (A) (A) (A) (A) (A)
                 (A) (A) (A) (A) (A) (A) (A) (A) (A) (A) (A)
 The electronic state is 1-A.
 Alpha  occ. eigenvalues --  -19.13445 -19.12787 -14.31315 -10.27706 -10.27267
 Alpha  occ. eigenvalues --  -10.24610 -10.22368 -10.22193 -10.22130 -10.22081
 Alpha  occ. eigenvalues --  -10.21852 -10.21649 -10.21537 -10.21468 -10.21395
 Alpha  occ. eigenvalues --  -10.21179 -10.21102  -0.95795  -0.94264  -0.90263
 Alpha  occ. eigenvalues --   -0.87751  -0.85797  -0.81757  -0.77290  -0.76510
 Alpha  occ. eigenvalues --   -0.75610  -0.70586  -0.66316  -0.64447  -0.60427
 Alpha  occ. eigenvalues --   -0.57282  -0.55787  -0.54608  -0.49444  -0.49272
 Alpha  occ. eigenvalues --   -0.48751  -0.48581  -0.47159  -0.44641  -0.43774
 Alpha  occ. eigenvalues --   -0.43728  -0.43302  -0.40297  -0.40082  -0.39032
 Alpha  occ. eigenvalues --   -0.38110  -0.36743  -0.36584  -0.35568  -0.33736
 Alpha  occ. eigenvalues --   -0.33661  -0.27554  -0.27142  -0.26750  -0.25760
 Alpha  occ. eigenvalues --   -0.25173  -0.24914  -0.19990
 Alpha virt. eigenvalues --   -0.13470  -0.06479  -0.03332  -0.01233   0.04948
 Alpha virt. eigenvalues --    0.05207   0.08634   0.09091   0.09297   0.13024
 Alpha virt. eigenvalues --    0.13257   0.13936   0.14881   0.17310   0.17449
 Alpha virt. eigenvalues --    0.17938   0.18799   0.20153   0.21804   0.23496
 Alpha virt. eigenvalues --    0.25058   0.25557   0.26635   0.30131   0.31326
 Alpha virt. eigenvalues --    0.32610   0.32967   0.34730   0.36458   0.40611
 Alpha virt. eigenvalues --    0.44380   0.44957   0.47288   0.48449   0.49561
 Alpha virt. eigenvalues --    0.50845   0.50920   0.52386   0.54125   0.54231
 Alpha virt. eigenvalues --    0.54817   0.55067   0.55162   0.56349   0.57611
 Alpha virt. eigenvalues --    0.58485   0.59250   0.59469   0.59535   0.60561
 Alpha virt. eigenvalues --    0.61017   0.61473   0.61597   0.62524   0.63078
 Alpha virt. eigenvalues --    0.64238   0.66430   0.66584   0.69958   0.71716
 Alpha virt. eigenvalues --    0.71799   0.73791   0.77373   0.79342   0.80673
 Alpha virt. eigenvalues --    0.80862   0.81100   0.81459   0.81963   0.82821
 Alpha virt. eigenvalues --    0.83418   0.84838   0.86486   0.87319   0.89367
 Alpha virt. eigenvalues --    0.89946   0.91300   0.91487   0.92755   0.92793
 Alpha virt. eigenvalues --    0.94866   0.95723   0.99309   1.01738   1.01983
 Alpha virt. eigenvalues --    1.02882   1.05660   1.06051   1.07025   1.08686
 Alpha virt. eigenvalues --    1.10640   1.12033   1.13769   1.15972   1.17853
 Alpha virt. eigenvalues --    1.20016   1.21831   1.22044   1.23063   1.23931
 Alpha virt. eigenvalues --    1.24597   1.29436   1.31911   1.33569   1.35190
 Alpha virt. eigenvalues --    1.35794   1.36609   1.37242   1.41036   1.42671
 Alpha virt. eigenvalues --    1.43455   1.44128   1.44993   1.46648   1.47318
 Alpha virt. eigenvalues --    1.48111   1.48292   1.49990   1.54678   1.58521
 Alpha virt. eigenvalues --    1.62047   1.70471   1.71731   1.74269   1.74436
 Alpha virt. eigenvalues --    1.75567   1.78028   1.79109   1.81043   1.81720
 Alpha virt. eigenvalues --    1.82379   1.83126   1.85017   1.86324   1.86386
 Alpha virt. eigenvalues --    1.87560   1.89561   1.89601   1.90425   1.92665
 Alpha virt. eigenvalues --    1.93164   1.93699   1.96738   1.98096   2.00230
 Alpha virt. eigenvalues --    2.02217   2.02789   2.04997   2.08149   2.10534
 Alpha virt. eigenvalues --    2.12406   2.12841   2.14539   2.15252   2.19038
 Alpha virt. eigenvalues --    2.20470   2.21012   2.24285   2.25132   2.26099
 Alpha virt. eigenvalues --    2.28085   2.29198   2.29723   2.32290   2.33668
 Alpha virt. eigenvalues --    2.35941   2.39639   2.41419   2.44785   2.44927
 Alpha virt. eigenvalues --    2.47117   2.48502   2.51636   2.53503   2.57151
 Alpha virt. eigenvalues --    2.60911   2.64050   2.65790   2.66983   2.67650
 Alpha virt. eigenvalues --    2.68041   2.70098   2.72055   2.73817   2.75782
 Alpha virt. eigenvalues --    2.79059   2.82863   2.84679   2.87194   2.93232
 Alpha virt. eigenvalues --    2.95704   3.00814   3.02171   3.12790   3.17586
 Alpha virt. eigenvalues --    3.29994   3.45320   3.50171   3.89094   3.99247
 Alpha virt. eigenvalues --    4.04731   4.06229   4.06678   4.09525   4.12046
 Alpha virt. eigenvalues --    4.14113   4.14735   4.29702   4.32953   4.33206
 Alpha virt. eigenvalues --    4.38777   4.51719   4.55453   4.65032   4.93504
          Condensed to atoms (all electrons):
               1          2          3          4          5          6
     1  C    4.954887   0.468245  -0.017466  -0.035508  -0.018106   0.483483
     2  C    0.468245   5.112615   0.438611  -0.061115  -0.063449  -0.017559
     3  C   -0.017466   0.438611   5.220787   0.398077  -0.061163  -0.035340
     4  C   -0.035508  -0.061115   0.398077   5.177399   0.439223  -0.018875
     5  C   -0.018106  -0.063449  -0.061163   0.439223   5.111337   0.466894
     6  C    0.483483  -0.017559  -0.035340  -0.018875   0.466894   4.957023
     7  C    0.010672  -0.079011   0.110329   0.049718   0.014734  -0.000944
     8  C   -0.000883   0.014357   0.048004   0.157026  -0.079255   0.009980
     9  C    0.000119  -0.002823  -0.089090  -0.018418   0.021950  -0.000328
    10  C   -0.000439   0.019427   0.004831  -0.075797  -0.002847   0.000076
    11  C   -0.000002  -0.000357   0.018392  -0.001626   0.000009   0.000001
    12  H   -0.000000  -0.000015   0.000960  -0.000022   0.000000   0.000000
    13  C   -0.000000  -0.000003  -0.000448   0.000090   0.000001  -0.000000
    14  C   -0.000000   0.000001   0.000044  -0.000329  -0.000002  -0.000000
    15  C    0.000001  -0.000002  -0.002158   0.012711  -0.000096   0.000001
    16  H    0.359757  -0.034535   0.002591   0.000820   0.003612  -0.039673
    17  H   -0.043176   0.355055  -0.038547   0.004181   0.000315   0.004198
    18  H    0.004329   0.000178   0.004007  -0.041949   0.354465  -0.042703
    19  H   -0.039645   0.003658   0.000826   0.002528  -0.034386   0.359567
    20  H   -0.000000  -0.000000   0.000002  -0.000000   0.000000   0.000000
    21  H    0.000000   0.000000  -0.000000   0.000003  -0.000000  -0.000000
    22  O    0.000002  -0.000043   0.003605  -0.097506  -0.000273   0.001038
    23  O    0.001097  -0.000522  -0.103321   0.004178  -0.000032  -0.000004
    24  N    0.000000  -0.000000  -0.000035   0.000630   0.000059   0.000000
    25  H   -0.000000   0.000000   0.000001   0.000026  -0.000002  -0.000000
    26  H   -0.000000   0.000000   0.000001   0.000026  -0.000002  -0.000000
               7          8          9         10         11         12
     1  C    0.010672  -0.000883   0.000119  -0.000439  -0.000002  -0.000000
     2  C   -0.079011   0.014357  -0.002823   0.019427  -0.000357  -0.000015
     3  C    0.110329   0.048004  -0.089090   0.004831   0.018392   0.000960
     4  C    0.049718   0.157026  -0.018418  -0.075797  -0.001626  -0.000022
     5  C    0.014734  -0.079255   0.021950  -0.002847   0.000009   0.000000
     6  C   -0.000944   0.009980  -0.000328   0.000076   0.000001   0.000000
     7  C    5.221233  -0.119797   0.074184   0.095531  -0.078608  -0.006792
     8  C   -0.119797   5.296549   0.036297   0.033703   0.015954  -0.000076
     9  C    0.074184   0.036297   5.368092   0.352480  -0.060867   0.003997
    10  C    0.095531   0.033703   0.352480   5.292547   0.433531  -0.039185
    11  C   -0.078608   0.015954  -0.060867   0.433531   5.123063   0.356516
    12  H   -0.006792  -0.000076   0.003997  -0.039185   0.356516   0.530186
    13  C    0.010931  -0.002220  -0.032327  -0.005643   0.456367  -0.042519
    14  C   -0.000617   0.015687  -0.055893  -0.050955  -0.019554   0.004203
    15  C    0.015195  -0.076057   0.409960  -0.048648  -0.065136   0.000349
    16  H   -0.000159   0.000014  -0.000000   0.000003  -0.000000  -0.000000
    17  H   -0.006896  -0.000136  -0.000003   0.000842  -0.000018  -0.000009
    18  H   -0.000066  -0.005929   0.001394  -0.000070  -0.000000  -0.000000
    19  H    0.000014  -0.000163   0.000003  -0.000001  -0.000000  -0.000000
    20  H   -0.000173   0.000012   0.000962   0.002376  -0.033647  -0.004273
    21  H    0.000010  -0.000110   0.004060   0.000705   0.003792  -0.000144
    22  O   -0.000484   0.444525  -0.086150   0.004647  -0.000001   0.000000
    23  O    0.456328  -0.000453   0.004463  -0.103006  -0.000420   0.017498
    24  N   -0.000073   0.011290  -0.063464   0.003872   0.000227   0.000004
    25  H    0.000001  -0.000188   0.003720  -0.000012   0.000002  -0.000000
    26  H    0.000002  -0.000199   0.003682  -0.000009   0.000001  -0.000000
              13         14         15         16         17         18
     1  C   -0.000000  -0.000000   0.000001   0.359757  -0.043176   0.004329
     2  C   -0.000003   0.000001  -0.000002  -0.034535   0.355055   0.000178
     3  C   -0.000448   0.000044  -0.002158   0.002591  -0.038547   0.004007
     4  C    0.000090  -0.000329   0.012711   0.000820   0.004181  -0.041949
     5  C    0.000001  -0.000002  -0.000096   0.003612   0.000315   0.354465
     6  C   -0.000000  -0.000000   0.000001  -0.039673   0.004198  -0.042703
     7  C    0.010931  -0.000617   0.015195  -0.000159  -0.006896  -0.000066
     8  C   -0.002220   0.015687  -0.076057   0.000014  -0.000136  -0.005929
     9  C   -0.032327  -0.055893   0.409960  -0.000000  -0.000003   0.001394
    10  C   -0.005643  -0.050955  -0.048648   0.000003   0.000842  -0.000070
    11  C    0.456367  -0.019554  -0.065136  -0.000000  -0.000018  -0.000000
    12  H   -0.042519   0.004203   0.000349  -0.000000  -0.000009  -0.000000
    13  C    5.007070   0.410928   0.007377   0.000000  -0.000000   0.000000
    14  C    0.410928   5.168192   0.471458   0.000000  -0.000000  -0.000000
    15  C    0.007377   0.471458   4.887159  -0.000000   0.000000   0.000025
    16  H    0.000000   0.000000  -0.000000   0.567881  -0.004562  -0.000141
    17  H   -0.000000  -0.000000   0.000000  -0.004562   0.532080   0.000013
    18  H    0.000000  -0.000000   0.000025  -0.000141   0.000013   0.533861
    19  H    0.000000  -0.000000  -0.000000  -0.004404  -0.000145  -0.004579
    20  H    0.352410  -0.031512   0.002277  -0.000000  -0.000000   0.000000
    21  H   -0.035352   0.350185  -0.037218   0.000000  -0.000000  -0.000000
    22  O   -0.000006   0.000727  -0.015123   0.000000   0.000000   0.018577
    23  O    0.001108   0.000001  -0.000030  -0.000004   0.017349   0.000000
    24  N    0.006806  -0.104787   0.369966   0.000000  -0.000000   0.000026
    25  H    0.000268  -0.001278  -0.041836  -0.000000   0.000000  -0.000001
    26  H    0.000271  -0.001278  -0.041850  -0.000000   0.000000  -0.000001
              19         20         21         22         23         24
     1  C   -0.039645  -0.000000   0.000000   0.000002   0.001097   0.000000
     2  C    0.003658  -0.000000   0.000000  -0.000043  -0.000522  -0.000000
     3  C    0.000826   0.000002  -0.000000   0.003605  -0.103321  -0.000035
     4  C    0.002528  -0.000000   0.000003  -0.097506   0.004178   0.000630
     5  C   -0.034386   0.000000  -0.000000  -0.000273  -0.000032   0.000059
     6  C    0.359567   0.000000  -0.000000   0.001038  -0.000004   0.000000
     7  C    0.000014  -0.000173   0.000010  -0.000484   0.456328  -0.000073
     8  C   -0.000163   0.000012  -0.000110   0.444525  -0.000453   0.011290
     9  C    0.000003   0.000962   0.004060  -0.086150   0.004463  -0.063464
    10  C   -0.000001   0.002376   0.000705   0.004647  -0.103006   0.003872
    11  C   -0.000000  -0.033647   0.003792  -0.000001  -0.000420   0.000227
    12  H   -0.000000  -0.004273  -0.000144   0.000000   0.017498   0.000004
    13  C    0.000000   0.352410  -0.035352  -0.000006   0.001108   0.006806
    14  C   -0.000000  -0.031512   0.350185   0.000727   0.000001  -0.104787
    15  C   -0.000000   0.002277  -0.037218  -0.015123  -0.000030   0.369966
    16  H   -0.004404  -0.000000   0.000000   0.000000  -0.000004   0.000000
    17  H   -0.000145  -0.000000  -0.000000   0.000000   0.017349  -0.000000
    18  H   -0.004579   0.000000  -0.000000   0.018577   0.000000   0.000026
    19  H    0.567457   0.000000  -0.000000  -0.000004   0.000000   0.000000
    20  H    0.000000   0.566707  -0.004670  -0.000000  -0.000003  -0.000139
    21  H   -0.000000  -0.004670   0.573799   0.000013   0.000000  -0.002301
    22  O   -0.000004  -0.000000   0.000013   8.270514   0.000000  -0.063708
    23  O    0.000000  -0.000003   0.000000   0.000000   8.259521   0.000000
    24  N    0.000000  -0.000139  -0.002301  -0.063708   0.000000   6.925332
    25  H   -0.000000  -0.000003   0.002361   0.002997  -0.000000   0.314109
    26  H   -0.000000  -0.000003   0.002341   0.002997  -0.000000   0.314158
              25         26
     1  C   -0.000000  -0.000000
     2  C    0.000000   0.000000
     3  C    0.000001   0.000001
     4  C    0.000026   0.000026
     5  C   -0.000002  -0.000002
     6  C   -0.000000  -0.000000
     7  C    0.000001   0.000002
     8  C   -0.000188  -0.000199
     9  C    0.003720   0.003682
    10  C   -0.000012  -0.000009
    11  C    0.000002   0.000001
    12  H   -0.000000  -0.000000
    13  C    0.000268   0.000271
    14  C   -0.001278  -0.001278
    15  C   -0.041836  -0.041850
    16  H   -0.000000  -0.000000
    17  H    0.000000   0.000000
    18  H   -0.000001  -0.000001
    19  H   -0.000000  -0.000000
    20  H   -0.000003  -0.000003
    21  H    0.002361   0.002341
    22  O    0.002997   0.002997
    23  O   -0.000000  -0.000000
    24  N    0.314109   0.314158
    25  H    0.434905  -0.028431
    26  H   -0.028431   0.434895
 Mulliken charges:
               1
     1  C   -0.127366
     2  C   -0.152714
     3  C    0.096502
     4  C    0.104509
     5  C   -0.152985
     6  C   -0.126834
     7  C    0.234737
     8  C    0.202067
     9  C    0.123999
    10  C    0.082039
    11  C   -0.147619
    12  H    0.179321
    13  C   -0.135110
    14  C   -0.155219
    15  C    0.151674
    16  H    0.148803
    17  H    0.179459
    18  H    0.178565
    19  H    0.149274
    20  H    0.149676
    21  H    0.142525
    22  O   -0.486343
    23  O   -0.553749
    24  N   -0.711972
    25  H    0.313361
    26  H    0.313399
 Sum of Mulliken charges =  -0.00000
 Mulliken charges with hydrogens summed into heavy atoms:
               1
     1  C    0.021437
     2  C    0.026745
     3  C    0.096502
     4  C    0.104509
     5  C    0.025580
     6  C    0.022440
     7  C    0.234737
     8  C    0.202067
     9  C    0.123999
    10  C    0.082039
    11  C    0.031702
    13  C    0.014566
    14  C   -0.012694
    15  C    0.151674
    22  O   -0.486343
    23  O   -0.553749
    24  N   -0.085212
 Electronic spatial extent (au):  <R**2>=           3715.5585
 Charge=             -0.0000 electrons
 Dipole moment (field-independent basis, Debye):
    X=              1.5254    Y=             -0.5138    Z=             -0.0088  Tot=              1.6096
 Quadrupole moment (field-independent basis, Debye-Ang):
   XX=            -62.9571   YY=           -108.7296   ZZ=            -95.8333
   XY=              3.0414   XZ=              0.0031   YZ=             -0.0064
 Traceless Quadrupole moment (field-independent basis, Debye-Ang):
   XX=             26.2162   YY=            -19.5563   ZZ=             -6.6600
   XY=              3.0414   XZ=              0.0031   YZ=             -0.0064
 Octapole moment (field-independent basis, Debye-Ang**2):
  XXX=             17.1160  YYY=            -15.4710  ZZZ=              0.0513  XYY=             17.3576
  XXY=            -19.3247  XXZ=             -0.1364  XZZ=              8.9694  YZZ=             -7.1478
  YYZ=             -0.1005  XYZ=             -0.0667
 Hexadecapole moment (field-independent basis, Debye-Ang**3):
 XXXX=          -2721.4002 YYYY=          -1649.0223 ZZZZ=            -97.5807 XXXY=            -60.4277
 XXXZ=              0.2024 YYYX=             26.1114 YYYZ=             -0.0751 ZZZX=              0.0653
 ZZZY=             -0.0327 XXYY=           -668.1770 XXZZ=           -599.2585 YYZZ=           -260.6031
 XXYZ=             -0.0198 YYXZ=             -0.0456 ZZXY=            -29.4709
 N-N= 1.097550399402D+03 E-N=-3.925787056574D+03  KE= 7.367184999898D+02
 No NMR shielding tensors so no spin-rotation constants.
 Leave Link  601 at Sun May 30 22:29:00 2021, MaxMem=    33554432 cpu:         0.3
 (Enter /opt/app/gaussian09/e01/g09/l701.exe)
 Compute integral first derivatives.
 ... and contract with generalized density number  0.
 Leave Link  701 at Sun May 30 22:29:01 2021, MaxMem=    33554432 cpu:         0.2
 (Enter /opt/app/gaussian09/e01/g09/l702.exe)
 L702 exits ... SP integral derivatives will be done elsewhere.
 Leave Link  702 at Sun May 30 22:29:02 2021, MaxMem=    33554432 cpu:         0.0
 (Enter /opt/app/gaussian09/e01/g09/l703.exe)
 Compute integral first derivatives, UseDBF=F ICtDFT=           0.
 Integral derivatives from FoFJK, PRISM(SPDF).
 Calling FoFJK, ICntrl=      2127 FMM=F ISym2X=0 I1Cent= 0 IOpClX= 0 NMat=1 NMatS=1 NMatT=0.
 FoFJK:  IHMeth= 1 ICntrl=    2127 DoSepK=F KAlg= 0 I1Cent=   0 FoldK=F
 IRaf=         0 NMat=   1 IRICut=       1 DoRegI=T DoRafI=F ISym2E= 0.
 FoFCou: FMM=F IPFlag=           0 FMFlag=      100000 FMFlg1=         800
         NFxFlg=           0 DoJE=F BraDBF=F KetDBF=F FulRan=T
         wScrn=  0.000000 ICntrl=    2127 IOpCl=  0 I1Cent=           0 NGrid=           0
         NMat0=    1 NMatS0=      1 NMatT0=    0 NMatD0=    1 NMtDS0=    0 NMtDT0=    0
 Symmetry not used in FoFCou.
 Leave Link  703 at Sun May 30 22:30:32 2021, MaxMem=    33554432 cpu:        89.0
 (Enter /opt/app/gaussian09/e01/g09/l716.exe)
 Dipole        = 6.00119270D-01-2.02146561D-01-3.45880713D-03
 ***** Axes restored to original set *****
 -------------------------------------------------------------------
 Center     Atomic                   Forces (Hartrees/Bohr)
 Number     Number              X              Y              Z
 -------------------------------------------------------------------
      1        6          -0.027328415    0.004534957   -0.000097952
      2        6           0.029618869    0.000309631    0.000349574
      3        6          -0.057752624   -0.006563275   -0.000409406
      4        6          -0.034521580   -0.049047822    0.000251488
      5        6           0.015316989    0.025847274   -0.000214612
      6        6          -0.008873371   -0.026606609   -0.000025879
      7        6           0.090440832   -0.156335762    0.000722093
      8        6          -0.093953221    0.160676271   -0.000673883
      9        6           0.054722657    0.005407231    0.000222717
     10        6           0.036443794    0.048073737   -0.000081592
     11        6          -0.016153731   -0.027323102    0.000175031
     12        1          -0.007622083    0.008224600   -0.000131645
     13        6           0.008907681    0.027624675   -0.000146957
     14        6           0.033979511   -0.012838198    0.000359855
     15        6          -0.038311983    0.019098234   -0.000333602
     16        1           0.006096101    0.006814391   -0.000054458
     17        1          -0.003447217    0.010610829   -0.000047517
     18        1           0.007952552   -0.008008885    0.000095063
     19        1           0.008894507    0.002067360    0.000059503
     20        1          -0.008862321   -0.001896508   -0.000035732
     21        1          -0.007044849   -0.006304456   -0.000066117
     22        8           0.051752716   -0.137912806    0.000484388
     23        8          -0.069947517    0.119831994   -0.000560701
     24        7           0.019456335   -0.027070054    0.000205312
     25        1           0.005072955    0.010438880    0.010773820
     26        1           0.005163415    0.010347412   -0.010818791
 -------------------------------------------------------------------
 Cartesian Forces:  Max     0.160676271 RMS     0.041218844
 Leave Link  716 at Sun May 30 22:30:32 2021, MaxMem=    33554432 cpu:         0.0
 (Enter /opt/app/gaussian09/e01/g09/l103.exe)

 GradGradGradGradGradGradGradGradGradGradGradGradGradGradGradGradGradGrad
 Berny optimization.
 FormGI is forming the generalized inverse of G from B-inverse, IUseBI=4.
 Internal  Forces:  Max     0.145113959 RMS     0.021234335
 Search for a local minimum.
 Step number   1 out of a maximum of  151
 All quantities printed in internal units (Hartrees-Bohrs-Radians)
 RMS Force = .21234D-01 SwitMx=.10000D-02 MixMth= 1
 Mixed Optimization -- RFO/linear search
 Second derivative matrix not updated -- first step.
 ITU=  0
     Eigenvalues ---    0.00766   0.01682   0.01755   0.01765   0.01770
     Eigenvalues ---    0.01819   0.01820   0.01906   0.01979   0.02000
     Eigenvalues ---    0.02009   0.02025   0.02100   0.02100   0.02100
     Eigenvalues ---    0.02119   0.02151   0.02155   0.02215   0.02225
     Eigenvalues ---    0.02348   0.02351   0.05453   0.16000   0.16000
     Eigenvalues ---    0.16000   0.16000   0.16000   0.16000   0.16000
     Eigenvalues ---    0.16000   0.16000   0.22000   0.22096   0.22553
     Eigenvalues ---    0.23502   0.24493   0.24910   0.25000   0.25000
     Eigenvalues ---    0.25000   0.25000   0.25000   0.25000   0.33629
     Eigenvalues ---    0.33632   0.33632   0.33681   0.33681   0.33683
     Eigenvalues ---    0.33683   0.35740   0.35788   0.38250   0.38577
     Eigenvalues ---    0.38718   0.40223   0.40749   0.40989   0.40989
     Eigenvalues ---    0.41161   0.41414   0.42102   0.44932   0.45767
     Eigenvalues ---    0.45768   0.47688   0.47688   0.49856   0.49906
     Eigenvalues ---    0.51296   0.51336
 RFO step:  Lambda=-1.23951264D-01 EMin= 7.65814550D-03
 Linear search not attempted -- first point.
 Maximum step size (   0.300) exceeded in Quadratic search.
    -- Step size scaled by   0.604
 Iteration  1 RMS(Cart)=  0.07077287 RMS(Int)=  0.00149124
 Iteration  2 RMS(Cart)=  0.00235999 RMS(Int)=  0.00004855
 Iteration  3 RMS(Cart)=  0.00000550 RMS(Int)=  0.00004838
 Iteration  4 RMS(Cart)=  0.00000000 RMS(Int)=  0.00004838
 ITry= 1 IFail=0 DXMaxC= 3.27D-01 DCOld= 1.00D+10 DXMaxT= 3.00D-01 DXLimC= 3.00D+00 Rises=F
 Variable       Old X    -DE/DX   Delta X   Delta X   Delta X     New X
                                 (Linear)    (Quad)   (Total)
    R1        2.57876   0.01438   0.00000   0.01390   0.01390   2.59266
    R2        2.69438  -0.01240   0.00000  -0.01277  -0.01276   2.68162
    R3        2.07869  -0.00898   0.00000  -0.01177  -0.01177   2.06692
    R4        2.70768  -0.01627   0.00000  -0.01915  -0.01915   2.68853
    R5        2.07956  -0.01086   0.00000  -0.01425  -0.01425   2.06531
    R6        2.70000  -0.01451   0.00000  -0.01870  -0.01883   2.68116
    R7        2.64391   0.03359   0.00000   0.03348   0.03340   2.67731
    R8        2.70768  -0.01654   0.00000  -0.01933  -0.01933   2.68834
    R9        2.64390   0.04633   0.00000   0.04838   0.04833   2.69223
   R10        2.57875   0.01572   0.00000   0.01525   0.01525   2.59401
   R11        2.07956  -0.01090   0.00000  -0.01430  -0.01430   2.06526
   R12        2.07869  -0.00896   0.00000  -0.01174  -0.01174   2.06695
   R13        2.64397   0.04173   0.00000   0.04306   0.04311   2.68708
   R14        2.70231  -0.13875   0.00000  -0.15696  -0.15696   2.54535
   R15        2.64399   0.07292   0.00000   0.07711   0.07719   2.72118
   R16        2.70231  -0.14511   0.00000  -0.16416  -0.16416   2.53815
   R17        2.69991   0.00772   0.00000   0.01035   0.01055   2.71046
   R18        2.70759   0.01948   0.00000   0.02336   0.02342   2.73102
   R19        2.70761  -0.01984   0.00000  -0.02336  -0.02336   2.68425
   R20        2.07960  -0.01092   0.00000  -0.01433  -0.01433   2.06527
   R21        2.57881   0.00654   0.00000   0.00519   0.00512   2.58393
   R22        2.69428  -0.01998   0.00000  -0.02275  -0.02282   2.67146
   R23        2.07872  -0.00892   0.00000  -0.01169  -0.01169   2.06703
   R24        2.57884   0.02265   0.00000   0.02183   0.02182   2.60066
   R25        2.07873  -0.00903   0.00000  -0.01184  -0.01184   2.06689
   R26        2.77790  -0.02074   0.00000  -0.02602  -0.02602   2.75187
   R27        1.88973   0.01550   0.00000   0.01557   0.01557   1.90530
   R28        1.88973   0.01550   0.00000   0.01558   0.01558   1.90530
    A1        2.10219  -0.00349   0.00000  -0.00398  -0.00400   2.09819
    A2        2.11114  -0.00005   0.00000  -0.00182  -0.00181   2.10933
    A3        2.06985   0.00353   0.00000   0.00580   0.00581   2.07566
    A4        2.10772  -0.00224   0.00000  -0.00444  -0.00446   2.10326
    A5        2.11455   0.00376   0.00000   0.00784   0.00785   2.12240
    A6        2.06091  -0.00152   0.00000  -0.00340  -0.00338   2.05752
    A7        2.07328   0.00686   0.00000   0.01036   0.01042   2.08370
    A8        2.12408  -0.00335   0.00000  -0.00183  -0.00171   2.12237
    A9        2.08583  -0.00351   0.00000  -0.00853  -0.00871   2.07712
   A10        2.07322   0.00173   0.00000   0.00090   0.00094   2.07416
   A11        2.08592   0.00726   0.00000   0.01146   0.01132   2.09724
   A12        2.12404  -0.00900   0.00000  -0.01236  -0.01226   2.11178
   A13        2.10775  -0.00060   0.00000  -0.00119  -0.00123   2.10652
   A14        2.06081  -0.00275   0.00000  -0.00589  -0.00587   2.05494
   A15        2.11463   0.00335   0.00000   0.00708   0.00710   2.12172
   A16        2.10221  -0.00226   0.00000  -0.00164  -0.00167   2.10054
   A17        2.06931   0.00297   0.00000   0.00474   0.00475   2.07406
   A18        2.11167  -0.00071   0.00000  -0.00310  -0.00309   2.10858
   A19        2.11143   0.00664   0.00000   0.00783   0.00781   2.11925
   A20        2.08564  -0.00279   0.00000  -0.00306  -0.00305   2.08260
   A21        2.08611  -0.00385   0.00000  -0.00478  -0.00477   2.08134
   A22        2.11143   0.00296   0.00000   0.00714   0.00719   2.11862
   A23        2.08565  -0.03567   0.00000  -0.05879  -0.05882   2.02683
   A24        2.08611   0.03272   0.00000   0.05165   0.05163   2.13773
   A25        2.08584  -0.02261   0.00000  -0.03403  -0.03389   2.05195
   A26        2.12399   0.03867   0.00000   0.05926   0.05905   2.18304
[...]

            Population analysis using the SCF density.

 **********************************************************************

 Orbital symmetries:
       Occupied  (A) (A) (A) (A) (A) (A) (A) (A) (A) (A) (A) (A)
                 (A) (A) (A) (A) (A) (A) (A) (A) (A) (A) (A) (A)
                 (A) (A) (A) (A) (A) (A) (A) (A) (A) (A) (A) (A)
                 (A) (A) (A) (A) (A) (A) (A) (A) (A) (A) (A) (A)
                 (A) (A) (A) (A) (A) (A) (A) (A) (A) (A)
       Virtual   (A) (A) (A) (A) (A) (A) (A) (A) (A) (A) (A) (A)
                 (A) (A) (A) (A) (A) (A) (A) (A) (A) (A) (A) (A)
                 (A) (A) (A) (A) (A) (A) (A) (A) (A) (A) (A) (A)
                 (A) (A) (A) (A) (A) (A) (A) (A) (A) (A) (A) (A)
                 (A) (A) (A) (A) (A) (A) (A) (A) (A) (A) (A) (A)
                 (A) (A) (A) (A) (A) (A) (A) (A) (A) (A) (A) (A)
                 (A) (A) (A) (A) (A) (A) (A) (A) (A) (A) (A) (A)
                 (A) (A) (A) (A) (A) (A) (A) (A) (A) (A) (A) (A)
                 (A) (A) (A) (A) (A) (A) (A) (A) (A) (A) (A) (A)
                 (A) (A) (A) (A) (A) (A) (A) (A) (A) (A) (A) (A)
                 (A) (A) (A) (A) (A) (A) (A) (A) (A) (A) (A) (A)
                 (A) (A) (A) (A) (A) (A) (A) (A) (A) (A) (A) (A)
                 (A) (A) (A) (A) (A) (A) (A) (A) (A) (A) (A) (A)
                 (A) (A) (A) (A) (A) (A) (A) (A) (A) (A) (A) (A)
                 (A) (A) (A) (A) (A) (A) (A) (A) (A) (A) (A) (A)
                 (A) (A) (A) (A) (A) (A) (A) (A) (A) (A) (A) (A)
                 (A) (A) (A) (A) (A) (A) (A) (A) (A) (A) (A) (A)
                 (A) (A) (A) (A) (A) (A) (A) (A) (A) (A) (A)
 The electronic state is 1-A.
 Alpha  occ. eigenvalues --  -19.14000 -19.13754 -14.35214 -10.27910 -10.27652
 Alpha  occ. eigenvalues --  -10.25449 -10.20895 -10.20784 -10.20717 -10.20713
 Alpha  occ. eigenvalues --  -10.20648 -10.20576 -10.20442 -10.20238 -10.20178
 Alpha  occ. eigenvalues --  -10.20132 -10.19127  -1.03745  -1.03517  -0.93518
 Alpha  occ. eigenvalues --   -0.87321  -0.85290  -0.79606  -0.76257  -0.75605
 Alpha  occ. eigenvalues --   -0.74403  -0.67306  -0.65380  -0.63457  -0.60318
 Alpha  occ. eigenvalues --   -0.57415  -0.56290  -0.54335  -0.51898  -0.49511
 Alpha  occ. eigenvalues --   -0.48599  -0.47110  -0.46291  -0.45560  -0.43688
 Alpha  occ. eigenvalues --   -0.43605  -0.42993  -0.42400  -0.41438  -0.39686
 Alpha  occ. eigenvalues --   -0.38598  -0.38428  -0.37554  -0.36066  -0.35550
 Alpha  occ. eigenvalues --   -0.35231  -0.31935  -0.27032  -0.26319  -0.26116
 Alpha  occ. eigenvalues --   -0.26075  -0.25092  -0.21222
 Alpha virt. eigenvalues --   -0.09577  -0.04475  -0.01626   0.00541   0.06016
 Alpha virt. eigenvalues --    0.06785   0.08261   0.09760   0.10683   0.14762
 Alpha virt. eigenvalues --    0.15274   0.15371   0.16532   0.17919   0.18450
 Alpha virt. eigenvalues --    0.18863   0.22005   0.22173   0.23752   0.25334
 Alpha virt. eigenvalues --    0.26040   0.27909   0.27995   0.29701   0.32765
 Alpha virt. eigenvalues --    0.33475   0.34517   0.35464   0.37616   0.39193
 Alpha virt. eigenvalues --    0.42795   0.43864   0.47765   0.49064   0.50017
 Alpha virt. eigenvalues --    0.51670   0.51785   0.53273   0.54361   0.54429
 Alpha virt. eigenvalues --    0.55118   0.55188   0.55966   0.56740   0.59036
 Alpha virt. eigenvalues --    0.59068   0.59516   0.59923   0.60241   0.60970
 Alpha virt. eigenvalues --    0.61308   0.61507   0.62958   0.63049   0.63690
 Alpha virt. eigenvalues --    0.65285   0.66481   0.67051   0.69093   0.71160
 Alpha virt. eigenvalues --    0.71763   0.73755   0.76536   0.77345   0.78461
 Alpha virt. eigenvalues --    0.81571   0.81850   0.81965   0.82479   0.82671
 Alpha virt. eigenvalues --    0.83513   0.85659   0.86487   0.88049   0.88634
 Alpha virt. eigenvalues --    0.89609   0.89935   0.91929   0.92771   0.95393
 Alpha virt. eigenvalues --    0.96211   0.99105   1.01162   1.01397   1.02399
 Alpha virt. eigenvalues --    1.03425   1.06041   1.07166   1.07892   1.11152
 Alpha virt. eigenvalues --    1.12182   1.14807   1.16475   1.18434   1.20234
 Alpha virt. eigenvalues --    1.22389   1.23180   1.24221   1.24823   1.27066
 Alpha virt. eigenvalues --    1.29675   1.32758   1.33717   1.36060   1.36179
 Alpha virt. eigenvalues --    1.38499   1.38653   1.39522   1.40169   1.43645
 Alpha virt. eigenvalues --    1.43739   1.45902   1.47151   1.47302   1.47697
 Alpha virt. eigenvalues --    1.48622   1.49718   1.55301   1.58573   1.59769
 Alpha virt. eigenvalues --    1.65065   1.65217   1.67643   1.67936   1.72526
 Alpha virt. eigenvalues --    1.74656   1.76041   1.76518   1.77003   1.80102
 Alpha virt. eigenvalues --    1.81483   1.82230   1.83300   1.84942   1.86877
 Alpha virt. eigenvalues --    1.87899   1.89330   1.91520   1.92275   1.92613
 Alpha virt. eigenvalues --    1.93930   1.96160   1.97892   1.99389   2.01061
 Alpha virt. eigenvalues --    2.02817   2.04098   2.04770   2.10247   2.12093
 Alpha virt. eigenvalues --    2.13310   2.15307   2.16334   2.18420   2.19644
 Alpha virt. eigenvalues --    2.23319   2.23803   2.26008   2.27307   2.28433
 Alpha virt. eigenvalues --    2.28880   2.29285   2.29741   2.31791   2.35641
 Alpha virt. eigenvalues --    2.40923   2.41185   2.43539   2.46348   2.50469
 Alpha virt. eigenvalues --    2.53485   2.56271   2.56464   2.58165   2.60077
 Alpha virt. eigenvalues --    2.62422   2.65165   2.66766   2.68023   2.70557
 Alpha virt. eigenvalues --    2.71940   2.73585   2.74317   2.79187   2.79443
 Alpha virt. eigenvalues --    2.81549   2.84857   2.87678   2.90886   2.97730
 Alpha virt. eigenvalues --    3.00223   3.01643   3.06172   3.10577   3.18334
 Alpha virt. eigenvalues --    3.31874   3.42439   3.49546   3.88105   3.96602
 Alpha virt. eigenvalues --    4.00217   4.07919   4.08004   4.12520   4.12737
 Alpha virt. eigenvalues --    4.13988   4.19111   4.33012   4.34130   4.38055
 Alpha virt. eigenvalues --    4.41952   4.61610   4.65486   4.69931   4.92501
          Condensed to atoms (all electrons):
               1          2          3          4          5          6
     1  C    4.919323   0.478961  -0.019024  -0.035303  -0.020825   0.515382
     2  C    0.478961   5.089351   0.456123  -0.058755  -0.059861  -0.020954
     3  C   -0.019024   0.456123   5.173425   0.445864  -0.056527  -0.036112
     4  C   -0.035303  -0.058755   0.445864   5.087512   0.462269  -0.018550
     5  C   -0.020825  -0.059861  -0.056527   0.462269   5.084482   0.478687
     6  C    0.515382  -0.020954  -0.036112  -0.018550   0.478687   4.919235
     7  C    0.006904  -0.059350   0.199835   0.009317   0.009969  -0.000408
     8  C   -0.000352   0.009942   0.009159   0.249568  -0.058967   0.006311
     9  C    0.000044  -0.001541  -0.046164  -0.050477   0.015240  -0.000276
    10  C   -0.000235   0.014711  -0.054623  -0.034183  -0.001678   0.000031
    11  C   -0.000001  -0.000371   0.015185  -0.001040   0.000012   0.000001
    12  H   -0.000000  -0.000014   0.000986  -0.000021   0.000000   0.000000
    13  C   -0.000000  -0.000001  -0.000312   0.000049   0.000001  -0.000000
    14  C   -0.000000   0.000001   0.000039  -0.000230  -0.000001   0.000000
    15  C    0.000000   0.000010  -0.000972   0.008592  -0.000199   0.000000
    16  H    0.361278  -0.037568   0.002788   0.000941   0.003825  -0.041069
    17  H   -0.042896   0.354592  -0.040387   0.004925   0.000419   0.004126
    18  H    0.004182   0.000366   0.004896  -0.039123   0.355263  -0.044141
    19  H   -0.041306   0.003886   0.000922   0.002826  -0.037714   0.361290
    20  H   -0.000000  -0.000000   0.000003  -0.000001   0.000000   0.000000
    21  H    0.000000   0.000000  -0.000000   0.000002  -0.000000   0.000000
    22  O   -0.000004  -0.000071   0.003844  -0.095926   0.001321   0.000931
    23  O    0.000905   0.002690  -0.107044   0.004299  -0.000070  -0.000006
    24  N   -0.000000  -0.000000  -0.000001  -0.000082   0.000017   0.000000
    25  H    0.000000   0.000000  -0.000000   0.000015  -0.000001  -0.000000
    26  H    0.000000   0.000000  -0.000024   0.001178  -0.000040  -0.000000
               7          8          9         10         11         12
     1  C    0.006904  -0.000352   0.000044  -0.000235  -0.000001  -0.000000
     2  C   -0.059350   0.009942  -0.001541   0.014711  -0.000371  -0.000014
     3  C    0.199835   0.009159  -0.046164  -0.054623   0.015185   0.000986
     4  C    0.009317   0.249568  -0.050477  -0.034183  -0.001040  -0.000021
     5  C    0.009969  -0.058967   0.015240  -0.001678   0.000012   0.000000
     6  C   -0.000408   0.006311  -0.000276   0.000031   0.000001   0.000000
     7  C    4.805788  -0.058069   0.021065   0.201108  -0.050607  -0.009570
     8  C   -0.058069   4.839964   0.211428  -0.002312   0.010182  -0.000105
     9  C    0.021065   0.211428   5.271147   0.400873  -0.070565   0.004456
    10  C    0.201108  -0.002312   0.400873   5.184156   0.472870  -0.040024
    11  C   -0.050607   0.010182  -0.070565   0.472870   5.123439   0.356994
    12  H   -0.009570  -0.000105   0.004456  -0.040024   0.356994   0.549009
    13  C    0.007016  -0.001138  -0.039352  -0.005665   0.445827  -0.042668
    14  C   -0.000048   0.008719  -0.034959  -0.045289  -0.031349   0.004114
    15  C    0.007433  -0.065001   0.443222  -0.025985  -0.052211   0.000539
    16  H   -0.000135   0.000011  -0.000000   0.000002  -0.000000  -0.000000
    17  H   -0.008959  -0.000127  -0.000005   0.000797  -0.000015  -0.000010
    18  H   -0.000102  -0.009831   0.000864  -0.000036  -0.000000  -0.000000
    19  H    0.000010  -0.000134   0.000003  -0.000000  -0.000000  -0.000000
    20  H   -0.000156   0.000013   0.001311   0.002469  -0.036646  -0.003842
    21  H    0.000005  -0.000107   0.004831   0.000552   0.004207  -0.000153
    22  O   -0.000067   0.506546  -0.083867   0.004523  -0.000038   0.000000
    23  O    0.577882  -0.000167   0.004274  -0.105040   0.000487   0.018158
    24  N   -0.000072  -0.015791  -0.053188   0.007076   0.000447   0.000006
    25  H    0.000001   0.000082   0.004412  -0.000024  -0.000008  -0.000000
    26  H    0.000000   0.000712  -0.020277  -0.000370   0.000005   0.000000
              13         14         15         16         17         18
     1  C   -0.000000  -0.000000   0.000000   0.361278  -0.042896   0.004182
     2  C   -0.000001   0.000001   0.000010  -0.037568   0.354592   0.000366
     3  C   -0.000312   0.000039  -0.000972   0.002788  -0.040387   0.004896
     4  C    0.000049  -0.000230   0.008592   0.000941   0.004925  -0.039123
     5  C    0.000001  -0.000001  -0.000199   0.003825   0.000419   0.355263
     6  C   -0.000000   0.000000   0.000000  -0.041069   0.004126  -0.044141
     7  C    0.007016  -0.000048   0.007433  -0.000135  -0.008959  -0.000102
     8  C   -0.001138   0.008719  -0.065001   0.000011  -0.000127  -0.009831
     9  C   -0.039352  -0.034959   0.443222  -0.000000  -0.000005   0.000864
    10  C   -0.005665  -0.045289  -0.025985   0.000002   0.000797  -0.000036
    11  C    0.445827  -0.031349  -0.052211  -0.000000  -0.000015  -0.000000
    12  H   -0.042668   0.004114   0.000539  -0.000000  -0.000010  -0.000000
    13  C    4.903171   0.531245   0.005778  -0.000000  -0.000000   0.000000
    14  C    0.531245   5.039758   0.475330   0.000000   0.000000   0.000000
    15  C    0.005778   0.475330   4.626754   0.000000   0.000000   0.000012
    16  H   -0.000000   0.000000   0.000000   0.576370  -0.004182  -0.000151
    17  H   -0.000000   0.000000   0.000000  -0.004182   0.548441   0.000017
    18  H    0.000000   0.000000   0.000012  -0.000151   0.000017   0.549532
    19  H    0.000000  -0.000000  -0.000000  -0.004861  -0.000153  -0.004311
    20  H    0.356568  -0.036946   0.003028  -0.000000  -0.000000   0.000000
    21  H   -0.037323   0.349958  -0.041886   0.000000  -0.000000  -0.000000
    22  O   -0.000009   0.000328  -0.009823   0.000000   0.000000   0.017293
    23  O    0.000988  -0.000008  -0.000046   0.000001   0.016910   0.000000
    24  N    0.005597  -0.089876   0.331011  -0.000000  -0.000000   0.000006
    25  H    0.000048  -0.007539  -0.027795   0.000000   0.000000  -0.000000
    26  H   -0.000138   0.005375  -0.005471  -0.000000  -0.000000  -0.000047
              19         20         21         22         23         24
     1  C   -0.041306  -0.000000   0.000000  -0.000004   0.000905  -0.000000
     2  C    0.003886  -0.000000   0.000000  -0.000071   0.002690  -0.000000
     3  C    0.000922   0.000003  -0.000000   0.003844  -0.107044  -0.000001
     4  C    0.002826  -0.000001   0.000002  -0.095926   0.004299  -0.000082
     5  C   -0.037714   0.000000  -0.000000   0.001321  -0.000070   0.000017
     6  C    0.361290   0.000000   0.000000   0.000931  -0.000006   0.000000
     7  C    0.000010  -0.000156   0.000005  -0.000067   0.577882  -0.000072
     8  C   -0.000134   0.000013  -0.000107   0.506546  -0.000167  -0.015791
     9  C    0.000003   0.001311   0.004831  -0.083867   0.004274  -0.053188
    10  C   -0.000000   0.002469   0.000552   0.004523  -0.105040   0.007076
    11  C   -0.000000  -0.036646   0.004207  -0.000038   0.000487   0.000447
    12  H   -0.000000  -0.003842  -0.000153   0.000000   0.018158   0.000006
    13  C    0.000000   0.356568  -0.037323  -0.000009   0.000988   0.005597
    14  C   -0.000000  -0.036946   0.349958   0.000328  -0.000008  -0.089876
    15  C   -0.000000   0.003028  -0.041886  -0.009823  -0.000046   0.331011
    16  H   -0.004861  -0.000000   0.000000   0.000000   0.000001  -0.000000
    17  H   -0.000153  -0.000000  -0.000000   0.000000   0.016910  -0.000000
    18  H   -0.004311   0.000000  -0.000000   0.017293   0.000000   0.000006
    19  H    0.577261   0.000000  -0.000000   0.000000   0.000000   0.000000
    20  H    0.000000   0.577740  -0.005547  -0.000000   0.000002  -0.000141
    21  H   -0.000000  -0.005547   0.598069   0.000005   0.000000  -0.007777
    22  O    0.000000  -0.000000   0.000005   8.169426   0.000000  -0.031663
    23  O    0.000000   0.000002   0.000000   0.000000   8.068363   0.000000
    24  N    0.000000  -0.000141  -0.007777  -0.031663   0.000000   7.110094
    25  H   -0.000000  -0.000014   0.006972   0.001179  -0.000000   0.312514
    26  H   -0.000000   0.000002   0.000028   0.060182   0.000000   0.262376
              25         26
     1  C    0.000000   0.000000
     2  C    0.000000   0.000000
     3  C   -0.000000  -0.000024
     4  C    0.000015   0.001178
     5  C   -0.000001  -0.000040
     6  C   -0.000000  -0.000000
     7  C    0.000001   0.000000
     8  C    0.000082   0.000712
     9  C    0.004412  -0.020277
    10  C   -0.000024  -0.000370
    11  C   -0.000008   0.000005
    12  H   -0.000000   0.000000
    13  C    0.000048  -0.000138
    14  C   -0.007539   0.005375
    15  C   -0.027795  -0.005471
    16  H    0.000000  -0.000000
    17  H    0.000000  -0.000000
    18  H   -0.000000  -0.000047
    19  H   -0.000000  -0.000000
    20  H   -0.000014   0.000002
    21  H    0.006972   0.000028
    22  O    0.001179   0.060182
    23  O   -0.000000   0.000000
    24  N    0.312514   0.262376
    25  H    0.395592  -0.016164
    26  H   -0.016164   0.327690
 Mulliken charges:
               1
     1  C   -0.127032
     2  C   -0.172148
     3  C    0.048123
     4  C    0.056334
     5  C   -0.175624
     6  C   -0.124479
     7  C    0.341208
     8  C    0.359465
     9  C    0.017501
    10  C    0.026295
    11  C   -0.186806
    12  H    0.162145
    13  C   -0.129682
    14  C   -0.168622
    15  C    0.327679
    16  H    0.142751
    17  H    0.166506
    18  H    0.165312
    19  H    0.142281
    20  H    0.142156
    21  H    0.128162
    22  O   -0.544109
    23  O   -0.482579
    24  N   -0.830549
    25  H    0.330730
    26  H    0.384983
 Sum of Mulliken charges =  -0.00000
 Mulliken charges with hydrogens summed into heavy atoms:
               1
     1  C    0.015718
     2  C   -0.005642
     3  C    0.048123
     4  C    0.056334
     5  C   -0.010313
     6  C    0.017802
     7  C    0.341208
     8  C    0.359465
     9  C    0.017501
    10  C    0.026295
    11  C   -0.024661
    13  C    0.012474
    14  C   -0.040460
    15  C    0.327679
    22  O   -0.544109
    23  O   -0.482579
    24  N   -0.114836
 Electronic spatial extent (au):  <R**2>=           3727.4409
 Charge=              0.0000 electrons
 Dipole moment (field-independent basis, Debye):
    X=              1.4205    Y=             -1.7514    Z=              0.1099  Tot=              2.2577
 Quadrupole moment (field-independent basis, Debye-Ang):
   XX=            -68.2243   YY=            -99.5150   ZZ=            -98.5735
   XY=             -1.5495   XZ=              0.3830   YZ=             -0.2752
 Traceless Quadrupole moment (field-independent basis, Debye-Ang):
   XX=             20.5466   YY=            -10.7441   ZZ=             -9.8026
   XY=             -1.5495   XZ=              0.3830   YZ=             -0.2752
 Octapole moment (field-independent basis, Debye-Ang**2):
  XXX=             19.9491  YYY=            -31.5817  ZZZ=              0.0794  XYY=             24.3889
  XXY=            -21.8427  XXZ=              1.3171  XZZ=              0.2332  YZZ=             -0.6628
  YYZ=              0.8438  XYZ=             -0.9169
 Hexadecapole moment (field-independent basis, Debye-Ang**3):
 XXXX=          -2844.8661 YYYY=          -1487.6094 ZZZZ=            -96.3910 XXXY=            -87.0207
 XXXZ=              4.5666 YYYX=            -30.2012 YYYZ=             -1.9700 ZZZX=              0.2699
 ZZZY=             -0.3606 XXYY=           -663.8657 XXZZ=           -642.4253 YYZZ=           -264.3649
 XXYZ=             -3.2307 YYXZ=              2.6884 ZZXY=            -10.0270
 N-N= 1.102278033699D+03 E-N=-3.935478451956D+03  KE= 7.371841147602D+02
 No NMR shielding tensors so no spin-rotation constants.
 Leave Link  601 at Mon May 31 02:42:54 2021, MaxMem=    33554432 cpu:         0.3
 (Enter /opt/app/gaussian09/e01/g09/l9999.exe)
 1\1\GINC-NB-0041\FOpt\RB3LYP\6-31G(d)\C14H9N1O2\ROOT\31-May-2021\0\\#p
  opt b3lyp/6-31g(d) geom=connectivity int=ultrafine\\1_amino_anthraqui
 none opt\\0,1\C,-3.324496218,-3.1874285232,-0.0484313715\C,-1.93306040
 99,-3.1857264622,-0.0230328869\C,-1.2323528118,-1.9737400581,-0.016349
 99\C,-1.9350705677,-0.7559643658,-0.035251569\C,-3.3350472412,-0.76669
 87779,-0.0609179098\C,-4.0255878556,-1.975587713,-0.0674773414\C,0.254
 5618881,-1.991425644,0.0097715651\C,-1.2221029709,0.5561506119,-0.0279
 138163\C,0.2455219039,0.5513149135,0.0009924054\C,0.9643643431,-0.6754
 748564,0.0158739536\C,2.3527813213,-0.6987543651,0.0355223217\H,2.8581
 023666,-1.6573961284,0.0464214543\C,3.0627149646,0.509435267,0.0397559
 83\C,2.3967330907,1.7197681685,0.0268320852\C,0.9798541593,1.77845619,
 0.0092333886\H,-3.8662167363,-4.1293061347,-0.0535476908\H,-1.36324382
 78,-4.1089735162,-0.0081381252\H,-3.857526717,0.1836950162,-0.07515066
 35\H,-5.1120567259,-1.9773103305,-0.0873522809\H,4.149368805,0.4983587
 396,0.0536643816\H,2.9545696954,2.6534696828,0.0318254307\O,-1.8905219
 58,1.6026314841,-0.0475087772\O,0.8748934698,-3.0501723781,0.025180313
 6\N,0.3581567769,2.9845101085,0.0076094854\H,0.8981703075,3.8342922604
 ,-0.0324729066\H,-0.654906532,2.9999907511,-0.0362545091\\Version=ES64
 L-G09RevE.01\State=1-A\HF=-744.1409182\RMSD=7.019e-09\RMSF=8.430e-06\D
 ipole=0.0069326,0.8870104,-0.0464534\Quadrupole=5.0788043,2.2076187,-7
 .286423,11.6048272,0.0723134,-0.1758526\PG=C01 [X(C14H9N1O2)]\\@


 FROM AN ANONYMOUS WRITER, ON PERSPECTIVE:

 MAN, DESPITE HIS ARTISTIC PRETENSIONS, HIS SOPHISTICATION AND MANY 
 ACCOMPLISHMENTS, OWES THE FACT OF HIS EXISTENCE TO A SIX-INCH LAYER OF 
 TOPSOIL AND THE FACT THAT IT RAINS.
 Job cpu time:       0 days  4 hours 21 minutes 15.1 seconds.
 File lengths (MBytes):  RWF=     48 Int=      0 D2E=      0 Chk=      6 Scr=      1
 Normal termination of Gaussian 09 at Mon May 31 02:42:57 2021.
