 Entering Gaussian System, Link 0=/opt/app/gaussian09/e01/g09/g09.exec
 Input=1_amino_anthraquinone_td.gjf
 Output=1_amino_anthraquinone_td.log
 Initial command:
 /opt/app/gaussian09/e01/g09/l1.exe "./Gau-18200.inp" -scrdir="./"
 Entering Link 1 = /opt/app/gaussian09/e01/g09/l1.exe PID=     18204.
  
 Copyright (c) 1988,1990,1992,1993,1995,1998,2003,2009,2015,
            Gaussian, Inc.  All Rights Reserved.
  
 This is part of the Gaussian(R) 09 program.  It is based on
 the Gaussian(R) 03 system (copyright 2003, Gaussian, Inc.),
 the Gaussian(R) 98 system (copyright 1998, Gaussian, Inc.),
 the Gaussian(R) 94 system (copyright 1995, Gaussian, Inc.),
 the Gaussian 92(TM) system (copyright 1992, Gaussian, Inc.),
 the Gaussian 90(TM) system (copyright 1990, Gaussian, Inc.),
 the Gaussian 88(TM) system (copyright 1988, Gaussian, Inc.),
 the Gaussian 86(TM) system (copyright 1986, Carnegie Mellon
 University), and the Gaussian 82(TM) system (copyright 1983,
 Carnegie Mellon University). Gaussian is a federally registered
 trademark of Gaussian, Inc.
  
 This software contains proprietary and confidential information,
 including trade secrets, belonging to Gaussian, Inc.
  
 This software is provided under written license and may be
 used, copied, transmitted, or stored only in accord with that
 written license.
  
 The following legend is applicable only to US Government
 contracts under FAR:
  
                    RESTRICTED RIGHTS LEGEND
  
 Use, reproduction and disclosure by the US Government is
 subject to restrictions as set forth in subparagraphs (a)
 and (c) of the Commercial Computer Software - Restricted
 Rights clause in FAR 52.227-19.
  
 Gaussian, Inc.
 340 Quinnipiac St., Bldg. 40, Wallingford CT 06492
  
  
 ---------------------------------------------------------------
 Warning -- This program may not be used in any manner that
 competes with the business of Gaussian, Inc. or will provide
 assistance to any competitor of Gaussian, Inc.  The licensee
 of this program is prohibited from giving any competitor of
 Gaussian, Inc. access to this program.  By using this program,
 the user acknowledges that Gaussian, Inc. is engaged in the
 business of creating and licensing software in the field of
 computational chemistry and represents and warrants to the
 licensee that it is not a competitor of Gaussian, Inc. and that
 it will not use this program in any manner prohibited above.
 ---------------------------------------------------------------
  

 Cite this work as:
 Gaussian 09, Revision E.01,
 M. J. Frisch, G. W. Trucks, H. B. Schlegel, G. E. Scuseria, 
 M. A. Robb, J. R. Cheeseman, G. Scalmani, V. Barone, B. Mennucci, 
 G. A. Petersson, H. Nakatsuji, M. Caricato, X. Li, H. P. Hratchian, 
 A. F. Izmaylov, J. Bloino, G. Zheng, J. L. Sonnenberg, M. Hada, 
 M. Ehara, K. Toyota, R. Fukuda, J. Hasegawa, M. Ishida, T. Nakajima, 
 Y. Honda, O. Kitao, H. Nakai, T. Vreven, J. A. Montgomery, Jr., 
 J. E. Peralta, F. Ogliaro, M. Bearpark, J. J. Heyd, E. Brothers, 
 K. N. Kudin, V. N. Staroverov, T. Keith, R. Kobayashi, J. Normand, 
 K. Raghavachari, A. Rendell, J. C. Burant, S. S. Iyengar, J. Tomasi, 
 M. Cossi, N. Rega, J. M. Millam, M. Klene, J. E. Knox, J. B. Cross, 
 V. Bakken, C. Adamo, J. Jaramillo, R. Gomperts, R. E. Stratmann, 
 O. Yazyev, A. J. Austin, R. Cammi, C. Pomelli, J. W. Ochterski, 
 R. L. Martin, K. Morokuma, V. G. Zakrzewski, G. A. Voth, 
 P. Salvador, J. J. Dannenberg, S. Dapprich, A. D. Daniels, 
 O. Farkas, J. B. Foresman, J. V. Ortiz, J. Cioslowski, 
 and D. J. Fox, Gaussian, Inc., Wallingford CT, 2013.
 
 ******************************************
 Gaussian 09:  ES64L-G09RevE.01 30-Nov-2015
                31-May-2021 
 ******************************************
 %chk=1_amino_anthraquinone_td.chk
 -------------------------------------------------
 #p td(NStates=10) b3lyp/6-31+g(d) nosymm pop=full
 -------------------------------------------------
 1/38=1/1;
 2/12=2,15=1,17=6,18=5,40=1/2;
 3/5=1,6=6,7=11,11=9,16=1,25=1,30=1,74=-5/1,2,8,3;
 4//1;
 5/5=2,38=5/2;
 8/6=1,10=2,108=10/1;
 9/41=10,42=1,70=2/14;
 6/7=3/1;
 99/5=1,9=1/99;
 Leave Link    1 at Mon May 31 15:21:21 2021, MaxMem=           0 cpu:         0.1
 (Enter /opt/app/gaussian09/e01/g09/l101.exe)
 ------------------------
 1_amino_anthraquinone td
 ------------------------
 Symbolic Z-matrix:
 Charge =  0 Multiplicity = 1
 C                    -3.96469   0.32612  -0.00033 
 C                    -2.87676   1.19397  -0.00207 
 C                    -1.57255   0.68505  -0.00137 
 C                    -1.36096  -0.70505   0.00103 
 C                    -2.4612   -1.57117   0.00293 
 C                    -3.75553  -1.05833   0.00226 
 C                    -0.42216   1.62766  -0.00214 
 C                     0.01536  -1.2845    0.00091 
 C                     1.15874  -0.36393  -0.00302 
 C                     0.95407   1.04322  -0.00109 
 C                     2.02397   1.92861   0.00296 
 H                     1.81999   2.99297   0.00424 
 C                     3.33299   1.42839   0.00628 
 C                     3.56868   0.06712   0.00335 
 C                     2.49868  -0.86366  -0.00336 
 H                    -4.97602   0.72338  -0.0009 
 H                    -3.00823   2.271    -0.00382 
 H                    -2.27581  -2.63984   0.00472 
 H                    -4.60526  -1.73565   0.00367 
 H                     4.1748    2.11575   0.01089 
 H                     4.5875   -0.31369   0.00436 
 O                     0.14674  -2.51941   0.00522 
 O                    -0.59881   2.84207  -0.00304 
 N                     2.76641  -2.19378  -0.01682 
 H                     3.71841  -2.5208    0.02926 
 H                     1.98449  -2.83903   0.00976 
 
 NAtoms=     26 NQM=       26 NQMF=       0 NMMI=      0 NMMIF=      0
                NMic=       0 NMicF=      0.
                    Isotopes and Nuclear Properties:
 (Nuclear quadrupole moments (NQMom) in fm**2, nuclear magnetic moments (NMagM)
  in nuclear magnetons)

  Atom         1           2           3           4           5           6           7           8           9          10
 IAtWgt=          12          12          12          12          12          12          12          12          12          12
 AtmWgt=  12.0000000  12.0000000  12.0000000  12.0000000  12.0000000  12.0000000  12.0000000  12.0000000  12.0000000  12.0000000
 NucSpn=           0           0           0           0           0           0           0           0           0           0
 AtZEff=   0.0000000   0.0000000   0.0000000   0.0000000   0.0000000   0.0000000   0.0000000   0.0000000   0.0000000   0.0000000
 NQMom=    0.0000000   0.0000000   0.0000000   0.0000000   0.0000000   0.0000000   0.0000000   0.0000000   0.0000000   0.0000000
 NMagM=    0.0000000   0.0000000   0.0000000   0.0000000   0.0000000   0.0000000   0.0000000   0.0000000   0.0000000   0.0000000
 AtZNuc=   6.0000000   6.0000000   6.0000000   6.0000000   6.0000000   6.0000000   6.0000000   6.0000000   6.0000000   6.0000000

  Atom        11          12          13          14          15          16          17          18          19          20
 IAtWgt=          12           1          12          12          12           1           1           1           1           1
 AtmWgt=  12.0000000   1.0078250  12.0000000  12.0000000  12.0000000   1.0078250   1.0078250   1.0078250   1.0078250   1.0078250
 NucSpn=           0           1           0           0           0           1           1           1           1           1
 AtZEff=   0.0000000   0.0000000   0.0000000   0.0000000   0.0000000   0.0000000   0.0000000   0.0000000   0.0000000   0.0000000
 NQMom=    0.0000000   0.0000000   0.0000000   0.0000000   0.0000000   0.0000000   0.0000000   0.0000000   0.0000000   0.0000000
 NMagM=    0.0000000   2.7928460   0.0000000   0.0000000   0.0000000   2.7928460   2.7928460   2.7928460   2.7928460   2.7928460
 AtZNuc=   6.0000000   1.0000000   6.0000000   6.0000000   6.0000000   1.0000000   1.0000000   1.0000000   1.0000000   1.0000000

  Atom        21          22          23          24          25          26
 IAtWgt=           1          16          16          14           1           1
 AtmWgt=   1.0078250  15.9949146  15.9949146  14.0030740   1.0078250   1.0078250
 NucSpn=           1           0           0           2           1           1
 AtZEff=   0.0000000   0.0000000   0.0000000   0.0000000   0.0000000   0.0000000
 NQMom=    0.0000000   0.0000000   0.0000000   2.0440000   0.0000000   0.0000000
 NMagM=    2.7928460   0.0000000   0.0000000   0.4037610   2.7928460   2.7928460
 AtZNuc=   1.0000000   8.0000000   8.0000000   7.0000000   1.0000000   1.0000000
 Leave Link  101 at Mon May 31 15:21:22 2021, MaxMem=    33554432 cpu:         0.1
 (Enter /opt/app/gaussian09/e01/g09/l202.exe)
                          Input orientation:                          
 ---------------------------------------------------------------------
 Center     Atomic      Atomic             Coordinates (Angstroms)
 Number     Number       Type             X           Y           Z
 ---------------------------------------------------------------------
      1          6           0       -3.964687    0.326123   -0.000330
      2          6           0       -2.876758    1.193966   -0.002071
      3          6           0       -1.572553    0.685050   -0.001369
      4          6           0       -1.360962   -0.705047    0.001028
      5          6           0       -2.461205   -1.571172    0.002926
      6          6           0       -3.755534   -1.058326    0.002262
      7          6           0       -0.422165    1.627662   -0.002138
      8          6           0        0.015359   -1.284497    0.000909
      9          6           0        1.158740   -0.363928   -0.003020
     10          6           0        0.954067    1.043223   -0.001090
     11          6           0        2.023973    1.928613    0.002960
     12          1           0        1.819987    2.992967    0.004239
     13          6           0        3.332985    1.428390    0.006282
     14          6           0        3.568681    0.067124    0.003355
     15          6           0        2.498685   -0.863663   -0.003361
     16          1           0       -4.976025    0.723384   -0.000904
     17          1           0       -3.008230    2.271003   -0.003823
     18          1           0       -2.275805   -2.639844    0.004719
     19          1           0       -4.605263   -1.735653    0.003666
     20          1           0        4.174800    2.115747    0.010894
     21          1           0        4.587496   -0.313690    0.004357
     22          8           0        0.146745   -2.519410    0.005223
     23          8           0       -0.598809    2.842071   -0.003038
     24          7           0        2.766414   -2.193782   -0.016817
     25          1           0        3.718406   -2.520796    0.029265
     26          1           0        1.984490   -2.839034    0.009757
 ---------------------------------------------------------------------
                    Distance matrix (angstroms):
                    1          2          3          4          5
     1  C    0.000000
     2  C    1.391669   0.000000
     3  C    2.418912   1.399981   0.000000
     4  C    2.800481   2.429794   1.406111   0.000000
     5  C    2.420785   2.796194   2.424925   1.400253   0.000000
     6  C    1.400161   2.417661   2.793704   2.420492   1.392229
     7  C    3.774052   2.492614   1.487249   2.514534   3.793448
     8  C    4.293584   3.808823   2.529938   1.493326   2.493101
     9  C    5.169688   4.325769   2.925802   2.542691   3.815950
    10  C    4.970752   3.833790   2.551881   2.901003   4.301065
    11  C    6.199357   4.955492   3.805452   4.288818   5.689052
    12  H    6.369814   5.029499   4.103150   4.877885   6.257793
    13  C    7.380451   6.214173   4.961544   5.156038   6.524571
    14  C    7.537819   6.543201   5.178237   4.989753   6.248482
    15  C    6.571969   5.755799   4.355857   3.862908   5.010101
    16  H    1.086564   2.151364   3.403688   3.887042   3.404310
    17  H    2.167344   1.085034   2.139257   3.401528   3.880927
    18  H    3.413109   3.880630   3.398459   2.140185   1.084636
    19  H    2.158998   3.401533   3.880355   3.404063   2.150359
    20  H    8.333914   7.111562   5.922762   6.213022   7.591442
    21  H    8.576084   7.614996   6.240490   5.961319   7.159989
    22  O    5.000096   4.788610   3.636563   2.359049   2.774988
    23  O    4.202277   2.811638   2.366626   3.628077   4.790122
    24  N    7.187344   6.581978   5.207163   4.387697   5.264601
    25  H    8.193640   7.569454   6.186488   5.394230   6.252205
    26  H    6.738770   6.316404   5.007179   3.968126   4.622955
                    6          7          8          9         10
     6  C    0.000000
     7  C    4.280876   0.000000
     8  C    3.777670   2.944844   0.000000
     9  C    4.963095   2.542772   1.467918   0.000000
    10  C    5.157215   1.495187   2.509872   1.421960   0.000000
    11  C    6.505729   2.464587   3.789276   2.450389   1.388751
    12  H    6.891982   2.625137   4.642563   3.421410   2.133389
    13  C    7.512049   3.760443   4.285607   2.817771   2.409908
    14  C    7.410180   4.285108   3.801707   2.448195   2.790876
    15  C    6.257251   3.839018   2.518735   1.430101   2.453989
    16  H    2.159652   4.642775   5.380103   6.230376   5.938711
    17  H    3.412174   2.664888   4.667301   4.930163   4.148162
    18  H    2.165827   4.652702   2.662032   4.120188   4.898683
    19  H    1.086652   5.367516   4.642596   5.924981   6.215169
    20  H    8.541956   4.622821   5.372402   3.904562   3.394638
    21  H    8.376195   5.372670   4.674068   3.429132   3.878537
    22  O    4.166841   4.185919   1.241890   2.381240   3.652966
    23  O    5.017772   1.227189   4.172024   3.656146   2.376401
    24  N    6.620078   4.977015   2.897484   2.435810   3.709858
    25  H    7.615729   5.861315   3.904074   3.347389   4.510512
    26  H    6.009896   5.073805   2.508812   2.609248   4.016691
                   11         12         13         14         15
    11  C    0.000000
    12  H    1.083726   0.000000
    13  C    1.401337   2.176481   0.000000
    14  C    2.418938   3.408590   1.381523   0.000000
    15  C    2.832348   3.915901   2.439192   1.418203   0.000000
    16  H    7.102997   7.164971   8.338869   8.569871   7.641336
    17  H    5.043843   4.881903   6.396961   6.936345   6.336580
    18  H    6.273667   6.964487   6.928857   6.440939   5.094177
    19  H    7.574538   7.977699   8.545582   8.370386   7.157269
    20  H    2.158966   2.512907   1.086799   2.136421   3.418545
    21  H    3.405814   4.311970   2.146775   1.087660   2.160014
    22  O    4.827929   5.760733   5.073190   4.289500   2.876316
    23  O    2.777306   2.423509   4.178227   5.006829   4.829796
    24  N    4.188764   5.272431   3.666288   2.399111   1.356863
    25  H    4.761201   5.831484   3.968015   2.592377   2.057881
    26  H    4.767815   5.834323   4.475417   3.309903   2.041240
                   16         17         18         19         20
    16  H    0.000000
    17  H    2.503468   0.000000
    18  H    4.313064   4.965173   0.000000
    19  H    2.486835   4.313220   2.498788   0.000000
    20  H    9.256155   7.184722   8.014112   9.587640   0.000000
    21  H    9.619588   8.023451   7.246785   9.302086   2.464250
    22  O    6.062881   5.736027   2.425542   4.816208   6.140842
    23  O    4.863009   2.476172   5.732693   6.083360   4.828569
    24  N    8.273782   7.299383   5.061957   7.385927   4.533912
    25  H    9.280018   8.258939   5.995443   8.360656   4.658988
    26  H    7.819188   7.144222   4.264952   6.681492   5.417316
                   21         22         23         24         25
    21  H    0.000000
    22  O    4.958374   0.000000
    23  O    6.070967   5.413076   0.000000
    24  N    2.617544   2.639921   6.056792   0.000000
    25  H    2.372184   3.571742   6.884746   1.007646   0.000000
    26  H    3.626711   1.865338   6.240877   1.014131   1.762987
                   26
    26  H    0.000000
 Symmetry turned off by external request.
 Stoichiometry    C14H9NO2
 Framework group  C1[X(C14H9NO2)]
 Deg. of freedom    72
 Full point group                 C1      NOp   1
 Rotational constants (GHZ):      0.9033341      0.4026623      0.2785164
 Leave Link  202 at Mon May 31 15:21:23 2021, MaxMem=    33554432 cpu:         0.0
 (Enter /opt/app/gaussian09/e01/g09/l301.exe)
 Standard basis: 6-31+G(d) (6D, 7F)
 Ernie: Thresh=  0.10000D-02 Tol=  0.10000D-05 Strict=F.
   341 basis functions,   580 primitive gaussians,   341 cartesian basis functions
    58 alpha electrons       58 beta electrons
       nuclear repulsion energy      1102.2779502728 Hartrees.
 IExCor=  402 DFT=T Ex+Corr=B3LYP ExCW=0 ScaHFX=  0.200000
 ScaDFX=  0.800000  0.720000  1.000000  0.810000 ScalE2=  1.000000  1.000000
 IRadAn=      0 IRanWt=     -1 IRanGd=            0 ICorTp=0 IEmpDi=  4
 NAtoms=   26 NActive=   26 NUniq=   26 SFac= 1.00D+00 NAtFMM=   60 NAOKFM=F Big=F
 Integral buffers will be    131072 words long.
 Regular integral format.
 Two-electron integral symmetry is turned off.
 Leave Link  301 at Mon May 31 15:21:24 2021, MaxMem=    33554432 cpu:         0.0
 (Enter /opt/app/gaussian09/e01/g09/l302.exe)
 NPDir=0 NMtPBC=     1 NCelOv=     1 NCel=       1 NClECP=     1 NCelD=      1
         NCelK=      1 NCelE2=     1 NClLst=     1 CellRange=     0.0.
 One-electron integrals computed using PRISM.
 NBasis=   341 RedAO= T EigKep=  1.15D-06  NBF=   341
 NBsUse=   336 1.00D-06 EigRej=  8.82D-07 NBFU=   336
 Precomputing XC quadrature grid using
 IXCGrd= 4 IRadAn=           0 IRanWt=          -1 IRanGd=           0 AccXCQ= 0.00D+00.
 Generated NRdTot=       0 NPtTot=           0 NUsed=           0 NTot=          32
 NSgBfM=   338   338   339   339   339 MxSgAt=    26 MxSgA2=    26.
 Leave Link  302 at Mon May 31 15:21:25 2021, MaxMem=    33554432 cpu:         0.8
 (Enter /opt/app/gaussian09/e01/g09/l308.exe)
 Leave Link  308 at Mon May 31 15:21:26 2021, MaxMem=    33554432 cpu:         0.1
 (Enter /opt/app/gaussian09/e01/g09/l303.exe)
 DipDrv:  MaxL=1.
 Leave Link  303 at Mon May 31 15:21:27 2021, MaxMem=    33554432 cpu:         0.1
 (Enter /opt/app/gaussian09/e01/g09/l401.exe)
 ExpMin= 4.38D-02 ExpMax= 5.48D+03 ExpMxC= 8.25D+02 IAcc=2 IRadAn=         4 AccDes= 0.00D+00
 Harris functional with IExCor=  402 and IRadAn=       4 diagonalized for initial guess.
 HarFok:  IExCor=  402 AccDes= 0.00D+00 IRadAn=         4 IDoV= 1 UseB2=F ITyADJ=14
 ICtDFT=  3500011 ScaDFX=  1.000000  1.000000  1.000000  1.000000
 FoFCou: FMM=F IPFlag=           0 FMFlag=      100000 FMFlg1=           0
         NFxFlg=           0 DoJE=T BraDBF=F KetDBF=T FulRan=T
         wScrn=  0.000000 ICntrl=     500 IOpCl=  0 I1Cent=   200000004 NGrid=           0
         NMat0=    1 NMatS0=      1 NMatT0=    0 NMatD0=    1 NMtDS0=    0 NMtDT0=    0
 Symmetry not used in FoFCou.
 Harris En= -744.141946779746    
 JPrj=0 DoOrth=F DoCkMO=F.
 Leave Link  401 at Mon May 31 15:21:38 2021, MaxMem=    33554432 cpu:        10.1
 (Enter /opt/app/gaussian09/e01/g09/l502.exe)
 Closed shell SCF:
 Using DIIS extrapolation, IDIIS=  1040.
 Two-electron integral symmetry not used.
 IVT=      371537 IEndB=      371537 NGot=    33554432 MDV=    33316158
 LenX=    33316158 LenY=    33199436
 Requested convergence on RMS density matrix=1.00D-08 within 128 cycles.
 Requested convergence on MAX density matrix=1.00D-06.
 Requested convergence on             energy=1.00D-06.
 No special actions if energy rises.
 Fock matrices will be formed incrementally for  20 cycles.

 Cycle   1  Pass 1  IDiag  1:
 FoFJK:  IHMeth= 1 ICntrl=       0 DoSepK=F KAlg= 0 I1Cent=   0 FoldK=F
 IRaf= 870000000 NMat=   1 IRICut=       1 DoRegI=T DoRafI=F ISym2E= 0.
 FoFCou: FMM=F IPFlag=           0 FMFlag=      100000 FMFlg1=           0
         NFxFlg=           0 DoJE=F BraDBF=F KetDBF=F FulRan=T
         wScrn=  0.000000 ICntrl=       0 IOpCl=  0 I1Cent=           0 NGrid=           0
         NMat0=    1 NMatS0=      1 NMatT0=    0 NMatD0=    1 NMtDS0=    0 NMtDT0=    0
 Symmetry not used in FoFCou.
 E= -743.833027139563    
 DIIS: error= 3.28D-02 at cycle   1 NSaved=   1.
 NSaved= 1 IEnMin= 1 EnMin= -743.833027139563     IErMin= 1 ErrMin= 3.28D-02
 ErrMax= 3.28D-02  0.00D+00 EMaxC= 1.00D-01 BMatC= 3.62D-01 BMatP= 3.62D-01
 IDIUse=3 WtCom= 6.72D-01 WtEn= 3.28D-01
 Coeff-Com:  0.100D+01
 Coeff-En:   0.100D+01
 Coeff:      0.100D+01
 Gap=     0.100 Goal=   None    Shift=    0.000
 GapD=    0.100 DampG=1.000 DampE=0.500 DampFc=0.5000 IDamp=-1.
 Damping current iteration by 5.00D-01
 RMSDP=7.48D-02 MaxDP=4.73D+00              OVMax= 2.30D-01

 Cycle   2  Pass 1  IDiag  1:
 RMSU=  3.42D-02    CP:  1.09D+00
 E= -743.940249069654     Delta-E=       -0.107221930092 Rises=F Damp=T
 DIIS: error= 1.11D-02 at cycle   2 NSaved=   2.
 NSaved= 2 IEnMin= 2 EnMin= -743.940249069654     IErMin= 2 ErrMin= 1.11D-02
 ErrMax= 1.11D-02  0.00D+00 EMaxC= 1.00D-01 BMatC= 5.86D-02 BMatP= 3.62D-01
 IDIUse=3 WtCom= 8.89D-01 WtEn= 1.11D-01
 Coeff-Com:  0.196D+00 0.804D+00
 Coeff-En:   0.289D+00 0.711D+00
 Coeff:      0.206D+00 0.794D+00
 Gap=     0.170 Goal=   None    Shift=    0.000
 RMSDP=4.74D-02 MaxDP=5.06D+00 DE=-1.07D-01 OVMax= 2.37D-01

 Cycle   3  Pass 1  IDiag  1:
 RMSU=  1.21D-02    CP:  8.13D-01  8.22D-01
 E= -744.106680908194     Delta-E=       -0.166431838540 Rises=F Damp=F
 DIIS: error= 1.78D-02 at cycle   3 NSaved=   3.
 NSaved= 3 IEnMin= 3 EnMin= -744.106680908194     IErMin= 2 ErrMin= 1.11D-02
 ErrMax= 1.78D-02  0.00D+00 EMaxC= 1.00D-01 BMatC= 6.70D-02 BMatP= 5.86D-02
 IDIUse=2 WtCom= 0.00D+00 WtEn= 1.00D+00
 Coeff-En:   0.000D+00 0.000D+00 0.100D+01
 Coeff:      0.000D+00 0.000D+00 0.100D+01
 Gap=     0.114 Goal=   None    Shift=    0.000
 RMSDP=2.36D-02 MaxDP=1.84D+00 DE=-1.66D-01 OVMax= 2.25D-01

 Cycle   4  Pass 1  IDiag  1:
 RMSU=  1.45D-02    CP:  7.88D-01  4.38D-01 -3.27D-02
 E= -743.771391015837     Delta-E=        0.335289892358 Rises=F Damp=F
 DIIS: error= 4.73D-02 at cycle   4 NSaved=   4.
 NSaved= 4 IEnMin= 3 EnMin= -744.106680908194     IErMin= 2 ErrMin= 1.11D-02
 ErrMax= 4.73D-02  0.00D+00 EMaxC= 1.00D-01 BMatC= 4.68D-01 BMatP= 5.86D-02
 IDIUse=2 WtCom= 0.00D+00 WtEn= 1.00D+00
 Coeff-En:   0.000D+00 0.000D+00 0.808D+00 0.192D+00
 Coeff:      0.000D+00 0.000D+00 0.808D+00 0.192D+00
 Gap=     0.143 Goal=   None    Shift=    0.000
 RMSDP=8.50D-03 MaxDP=5.13D-01 DE= 3.35D-01 OVMax= 9.56D-02

 Cycle   5  Pass 1  IDiag  1:
 RMSU=  1.10D-03    CP:  7.73D-01  4.90D-01  4.13D-01  6.02D-01
 E= -744.136456459094     Delta-E=       -0.365065443257 Rises=F Damp=F
 DIIS: error= 1.33D-02 at cycle   5 NSaved=   5.
 NSaved= 5 IEnMin= 5 EnMin= -744.136456459094     IErMin= 2 ErrMin= 1.11D-02
 ErrMax= 1.33D-02  0.00D+00 EMaxC= 1.00D-01 BMatC= 3.56D-02 BMatP= 5.86D-02
 IDIUse=3 WtCom= 8.67D-01 WtEn= 1.33D-01
 Coeff-Com: -0.276D-02 0.292D-01 0.316D+00-0.997D-01 0.757D+00
 Coeff-En:   0.000D+00 0.000D+00 0.381D+00 0.000D+00 0.619D+00
 Coeff:     -0.239D-02 0.253D-01 0.325D+00-0.865D-01 0.739D+00
 Gap=     0.116 Goal=   None    Shift=    0.000
 RMSDP=5.60D-03 MaxDP=4.42D-01 DE=-3.65D-01 OVMax= 4.07D-02

 Cycle   6  Pass 1  IDiag  1:
 RMSU=  6.82D-04    CP:  7.80D-01  5.90D-01  6.41D-01  3.80D-01  9.13D-01
 E= -744.168085797687     Delta-E=       -0.031629338594 Rises=F Damp=F
 DIIS: error= 1.15D-03 at cycle   6 NSaved=   6.
 NSaved= 6 IEnMin= 6 EnMin= -744.168085797687     IErMin= 6 ErrMin= 1.15D-03
 ErrMax= 1.15D-03  0.00D+00 EMaxC= 1.00D-01 BMatC= 2.38D-04 BMatP= 3.56D-02
 IDIUse=3 WtCom= 9.88D-01 WtEn= 1.15D-02
 Coeff-Com: -0.465D-02 0.191D-01 0.182D+00-0.763D-01 0.507D+00 0.372D+00
 Coeff-En:   0.000D+00 0.000D+00 0.000D+00 0.000D+00 0.000D+00 0.100D+01
 Coeff:     -0.459D-02 0.189D-01 0.180D+00-0.754D-01 0.502D+00 0.380D+00
 Gap=     0.115 Goal=   None    Shift=    0.000
 RMSDP=4.99D-04 MaxDP=2.25D-02 DE=-3.16D-02 OVMax= 8.90D-03

 Cycle   7  Pass 1  IDiag  1:
 RMSU=  2.53D-04    CP:  7.82D-01  5.94D-01  6.43D-01  3.84D-01  9.24D-01
                    CP:  5.65D-01
 E= -744.168363992701     Delta-E=       -0.000278195013 Rises=F Damp=F
 DIIS: error= 2.06D-04 at cycle   7 NSaved=   7.
 NSaved= 7 IEnMin= 7 EnMin= -744.168363992701     IErMin= 7 ErrMin= 2.06D-04
 ErrMax= 2.06D-04  0.00D+00 EMaxC= 1.00D-01 BMatC= 8.48D-06 BMatP= 2.38D-04
 IDIUse=3 WtCom= 9.98D-01 WtEn= 2.06D-03
 Coeff-Com: -0.130D-02 0.362D-02 0.486D-01-0.234D-01 0.144D+00 0.168D+00
 Coeff-Com:  0.660D+00
 Coeff-En:   0.000D+00 0.000D+00 0.000D+00 0.000D+00 0.000D+00 0.000D+00
 Coeff-En:   0.100D+01
 Coeff:     -0.129D-02 0.361D-02 0.485D-01-0.233D-01 0.144D+00 0.168D+00
 Coeff:      0.661D+00
 Gap=     0.116 Goal=   None    Shift=    0.000
 RMSDP=1.54D-04 MaxDP=1.45D-02 DE=-2.78D-04 OVMax= 1.45D-03

 Cycle   8  Pass 1  IDiag  1:
 RMSU=  5.50D-05    CP:  7.81D-01  5.92D-01  6.40D-01  3.86D-01  9.29D-01
                    CP:  5.74D-01  8.18D-01
 E= -744.168370941771     Delta-E=       -0.000006949070 Rises=F Damp=F
 DIIS: error= 6.86D-05 at cycle   8 NSaved=   8.
 NSaved= 8 IEnMin= 8 EnMin= -744.168370941771     IErMin= 8 ErrMin= 6.86D-05
 ErrMax= 6.86D-05  0.00D+00 EMaxC= 1.00D-01 BMatC= 1.79D-06 BMatP= 8.48D-06
 IDIUse=1 WtCom= 1.00D+00 WtEn= 0.00D+00
 Coeff-Com: -0.169D-03-0.102D-03 0.174D-01-0.732D-02 0.477D-01 0.728D-01
 Coeff-Com:  0.415D+00 0.454D+00
 Coeff:     -0.169D-03-0.102D-03 0.174D-01-0.732D-02 0.477D-01 0.728D-01
 Coeff:      0.415D+00 0.454D+00
 Gap=     0.115 Goal=   None    Shift=    0.000
 RMSDP=5.58D-05 MaxDP=3.01D-03 DE=-6.95D-06 OVMax= 6.24D-04

 Cycle   9  Pass 1  IDiag  1:
 RMSU=  1.88D-05    CP:  7.81D-01  5.93D-01  6.43D-01  3.85D-01  9.20D-01
                    CP:  5.50D-01  8.96D-01  5.49D-01
 E= -744.168372703726     Delta-E=       -0.000001761955 Rises=F Damp=F
 DIIS: error= 1.58D-05 at cycle   9 NSaved=   9.
 NSaved= 9 IEnMin= 9 EnMin= -744.168372703726     IErMin= 9 ErrMin= 1.58D-05
 ErrMax= 1.58D-05  0.00D+00 EMaxC= 1.00D-01 BMatC= 1.15D-07 BMatP= 1.79D-06
 IDIUse=1 WtCom= 1.00D+00 WtEn= 0.00D+00
 Coeff-Com:  0.579D-04-0.437D-03 0.525D-02-0.193D-02 0.131D-01 0.240D-01
 Coeff-Com:  0.163D+00 0.255D+00 0.542D+00
 Coeff:      0.579D-04-0.437D-03 0.525D-02-0.193D-02 0.131D-01 0.240D-01
 Coeff:      0.163D+00 0.255D+00 0.542D+00
 Gap=     0.115 Goal=   None    Shift=    0.000
 RMSDP=1.21D-05 MaxDP=5.63D-04 DE=-1.76D-06 OVMax= 2.04D-04

 Cycle  10  Pass 1  IDiag  1:
 RMSU=  4.89D-06    CP:  7.81D-01  5.93D-01  6.42D-01  3.85D-01  9.21D-01
                    CP:  5.57D-01  8.83D-01  6.64D-01  7.57D-01
 E= -744.168372821189     Delta-E=       -0.000000117463 Rises=F Damp=F
 DIIS: error= 3.98D-06 at cycle  10 NSaved=  10.
 NSaved=10 IEnMin=10 EnMin= -744.168372821189     IErMin=10 ErrMin= 3.98D-06
 ErrMax= 3.98D-06  0.00D+00 EMaxC= 1.00D-01 BMatC= 9.94D-09 BMatP= 1.15D-07
 IDIUse=1 WtCom= 1.00D+00 WtEn= 0.00D+00
 Coeff-Com:  0.427D-04-0.155D-03 0.364D-03-0.151D-03 0.662D-03 0.305D-02
 Coeff-Com:  0.319D-01 0.745D-01 0.279D+00 0.611D+00
 Coeff:      0.427D-04-0.155D-03 0.364D-03-0.151D-03 0.662D-03 0.305D-02
 Coeff:      0.319D-01 0.745D-01 0.279D+00 0.611D+00
 Gap=     0.115 Goal=   None    Shift=    0.000
 RMSDP=5.42D-06 MaxDP=2.81D-04 DE=-1.17D-07 OVMax= 4.79D-05

 Cycle  11  Pass 1  IDiag  1:
 RMSU=  1.60D-06    CP:  7.81D-01  5.93D-01  6.43D-01  3.85D-01  9.21D-01
                    CP:  5.56D-01  8.85D-01  6.42D-01  7.76D-01  6.62D-01
 E= -744.168372829850     Delta-E=       -0.000000008661 Rises=F Damp=F
 DIIS: error= 1.08D-06 at cycle  11 NSaved=  11.
 NSaved=11 IEnMin=11 EnMin= -744.168372829850     IErMin=11 ErrMin= 1.08D-06
 ErrMax= 1.08D-06  0.00D+00 EMaxC= 1.00D-01 BMatC= 1.02D-09 BMatP= 9.94D-09
 IDIUse=1 WtCom= 1.00D+00 WtEn= 0.00D+00
 Coeff-Com:  0.185D-04-0.491D-04-0.222D-03 0.494D-04-0.646D-03-0.950D-04
 Coeff-Com:  0.637D-02 0.236D-01 0.124D+00 0.351D+00 0.496D+00
 Coeff:      0.185D-04-0.491D-04-0.222D-03 0.494D-04-0.646D-03-0.950D-04
 Coeff:      0.637D-02 0.236D-01 0.124D+00 0.351D+00 0.496D+00
 Gap=     0.115 Goal=   None    Shift=    0.000
 RMSDP=9.57D-07 MaxDP=6.94D-05 DE=-8.66D-09 OVMax= 1.08D-05

 Cycle  12  Pass 1  IDiag  1:
 RMSU=  4.20D-07    CP:  7.81D-01  5.93D-01  6.43D-01  3.85D-01  9.21D-01
                    CP:  5.56D-01  8.85D-01  6.45D-01  7.88D-01  6.89D-01
                    CP:  7.55D-01
 E= -744.168372830797     Delta-E=       -0.000000000948 Rises=F Damp=F
 DIIS: error= 4.14D-07 at cycle  12 NSaved=  12.
 NSaved=12 IEnMin=12 EnMin= -744.168372830797     IErMin=12 ErrMin= 4.14D-07
 ErrMax= 4.14D-07  0.00D+00 EMaxC= 1.00D-01 BMatC= 8.41D-11 BMatP= 1.02D-09
 IDIUse=1 WtCom= 1.00D+00 WtEn= 0.00D+00
 Coeff-Com:  0.468D-05-0.989D-05-0.130D-03 0.337D-04-0.345D-03-0.277D-03
 Coeff-Com:  0.476D-03 0.467D-02 0.395D-01 0.125D+00 0.262D+00 0.569D+00
 Coeff:      0.468D-05-0.989D-05-0.130D-03 0.337D-04-0.345D-03-0.277D-03
 Coeff:      0.476D-03 0.467D-02 0.395D-01 0.125D+00 0.262D+00 0.569D+00
 Gap=     0.115 Goal=   None    Shift=    0.000
 RMSDP=2.72D-07 MaxDP=1.12D-05 DE=-9.48D-10 OVMax= 3.63D-06

 Cycle  13  Pass 1  IDiag  1:
 RMSU=  1.49D-07    CP:  7.81D-01  5.93D-01  6.43D-01  3.85D-01  9.21D-01
                    CP:  5.56D-01  8.86D-01  6.45D-01  7.88D-01  6.90D-01
                    CP:  7.61D-01  8.08D-01
 E= -744.168372830843     Delta-E=       -0.000000000045 Rises=F Damp=F
 DIIS: error= 2.72D-07 at cycle  13 NSaved=  13.
 NSaved=13 IEnMin=13 EnMin= -744.168372830843     IErMin=13 ErrMin= 2.72D-07
 ErrMax= 2.72D-07  0.00D+00 EMaxC= 1.00D-01 BMatC= 2.45D-11 BMatP= 8.41D-11
 IDIUse=1 WtCom= 1.00D+00 WtEn= 0.00D+00
 Coeff-Com:  0.473D-06-0.717D-06-0.527D-04 0.179D-04-0.139D-03-0.166D-03
 Coeff-Com: -0.528D-03-0.407D-03 0.891D-02 0.314D-01 0.992D-01 0.379D+00
 Coeff-Com:  0.482D+00
 Coeff:      0.473D-06-0.717D-06-0.527D-04 0.179D-04-0.139D-03-0.166D-03
 Coeff:     -0.528D-03-0.407D-03 0.891D-02 0.314D-01 0.992D-01 0.379D+00
 Coeff:      0.482D+00
 Gap=     0.115 Goal=   None    Shift=    0.000
 RMSDP=1.38D-07 MaxDP=6.28D-06 DE=-4.55D-11 OVMax= 1.87D-06

 Cycle  14  Pass 1  IDiag  1:
 RMSU=  6.22D-08    CP:  7.81D-01  5.93D-01  6.43D-01  3.85D-01  9.21D-01
                    CP:  5.56D-01  8.86D-01  6.44D-01  7.89D-01  6.87D-01
                    CP:  7.64D-01  8.25D-01  6.52D-01
 E= -744.168372830851     Delta-E=       -0.000000000008 Rises=F Damp=F
 DIIS: error= 6.94D-08 at cycle  14 NSaved=  14.
 NSaved=14 IEnMin=14 EnMin= -744.168372830851     IErMin=14 ErrMin= 6.94D-08
 ErrMax= 6.94D-08  0.00D+00 EMaxC= 1.00D-01 BMatC= 1.99D-12 BMatP= 2.45D-11
 IDIUse=1 WtCom= 1.00D+00 WtEn= 0.00D+00
 Coeff-Com: -0.629D-06 0.153D-05-0.990D-05 0.337D-05-0.214D-04-0.461D-04
 Coeff-Com: -0.286D-03-0.831D-03 0.332D-03 0.157D-02 0.202D-01 0.126D+00
 Coeff-Com:  0.256D+00 0.597D+00
 Coeff:     -0.629D-06 0.153D-05-0.990D-05 0.337D-05-0.214D-04-0.461D-04
 Coeff:     -0.286D-03-0.831D-03 0.332D-03 0.157D-02 0.202D-01 0.126D+00
 Coeff:      0.256D+00 0.597D+00
 Gap=     0.115 Goal=   None    Shift=    0.000
 RMSDP=4.48D-08 MaxDP=2.26D-06 DE=-7.73D-12 OVMax= 6.53D-07

 Cycle  15  Pass 1  IDiag  1:
 RMSU=  2.60D-08    CP:  7.81D-01  5.93D-01  6.43D-01  3.85D-01  9.21D-01
                    CP:  5.56D-01  8.86D-01  6.44D-01  7.90D-01  6.86D-01
                    CP:  7.71D-01  8.39D-01  6.77D-01  7.44D-01
 E= -744.168372830860     Delta-E=       -0.000000000009 Rises=F Damp=F
 DIIS: error= 3.28D-08 at cycle  15 NSaved=  15.
 NSaved=15 IEnMin=15 EnMin= -744.168372830860     IErMin=15 ErrMin= 3.28D-08
 ErrMax= 3.28D-08  0.00D+00 EMaxC= 1.00D-01 BMatC= 4.80D-13 BMatP= 1.99D-12
 IDIUse=1 WtCom= 1.00D+00 WtEn= 0.00D+00
 Coeff-Com: -0.563D-06 0.134D-05 0.868D-06-0.396D-06 0.621D-05-0.982D-05
 Coeff-Com: -0.123D-03-0.548D-03-0.153D-02-0.526D-02-0.643D-02 0.779D-02
 Coeff-Com:  0.736D-01 0.394D+00 0.538D+00
 Coeff:     -0.563D-06 0.134D-05 0.868D-06-0.396D-06 0.621D-05-0.982D-05
 Coeff:     -0.123D-03-0.548D-03-0.153D-02-0.526D-02-0.643D-02 0.779D-02
 Coeff:      0.736D-01 0.394D+00 0.538D+00
 Gap=     0.115 Goal=   None    Shift=    0.000
 RMSDP=2.67D-08 MaxDP=1.95D-06 DE=-9.32D-12 OVMax= 2.85D-07

 Cycle  16  Pass 1  IDiag  1:
 RMSU=  7.54D-09    CP:  7.81D-01  5.93D-01  6.43D-01  3.85D-01  9.21D-01
                    CP:  5.56D-01  8.86D-01  6.44D-01  7.90D-01  6.87D-01
                    CP:  7.73D-01  8.46D-01  6.99D-01  7.97D-01  6.27D-01
 E= -744.168372830866     Delta-E=       -0.000000000006 Rises=F Damp=F
 DIIS: error= 1.00D-08 at cycle  16 NSaved=  16.
 NSaved=16 IEnMin=16 EnMin= -744.168372830866     IErMin=16 ErrMin= 1.00D-08
 ErrMax= 1.00D-08  0.00D+00 EMaxC= 1.00D-01 BMatC= 2.10D-14 BMatP= 4.80D-13
 IDIUse=1 WtCom= 1.00D+00 WtEn= 0.00D+00
 Coeff-Com: -0.210D-06 0.514D-06 0.131D-05-0.508D-06 0.486D-05-0.271D-05
 Coeff-Com: -0.326D-04-0.201D-03-0.742D-03-0.274D-02-0.518D-02-0.853D-02
 Coeff-Com:  0.130D-01 0.139D+00 0.247D+00 0.618D+00
 Coeff:     -0.210D-06 0.514D-06 0.131D-05-0.508D-06 0.486D-05-0.271D-05
 Coeff:     -0.326D-04-0.201D-03-0.742D-03-0.274D-02-0.518D-02-0.853D-02
 Coeff:      0.130D-01 0.139D+00 0.247D+00 0.618D+00
 Gap=     0.115 Goal=   None    Shift=    0.000
 RMSDP=6.01D-09 MaxDP=3.39D-07 DE=-5.68D-12 OVMax= 7.96D-08

 SCF Done:  E(RB3LYP) =  -744.168372831     A.U. after   16 cycles
            NFock= 16  Conv=0.60D-08     -V/T= 2.0094
 KE= 7.372320798062D+02 PE=-3.934260701532D+03 EE= 1.350582298622D+03
 Leave Link  502 at Mon May 31 15:34:22 2021, MaxMem=    33554432 cpu:       763.0
 (Enter /opt/app/gaussian09/e01/g09/l801.exe)
 DoSCS=F DFT=T ScalE2(SS,OS)=  1.000000  1.000000
 ExpMin= 4.38D-02 ExpMax= 5.48D+03 ExpMxC= 8.25D+02 IAcc=3 IRadAn=         5 AccDes= 0.00D+00
 HarFok:  IExCor=  205 AccDes= 0.00D+00 IRadAn=         5 IDoV=-2 UseB2=F ITyADJ=14
 ICtDFT= 12500011 ScaDFX=  1.000000  1.000000  1.000000  1.000000
 Largest valence mixing into a core orbital is  5.70D-05
 Largest core mixing into a valence orbital is  1.25D-05
 Range of M.O.s used for correlation:    18   336
 NBasis=   341 NAE=    58 NBE=    58 NFC=    17 NFV=     0
 NROrb=    319 NOA=    41 NOB=    41 NVA=   278 NVB=   278

 **** Warning!!: The largest alpha MO coefficient is  0.18472608D+03

 Leave Link  801 at Mon May 31 15:34:24 2021, MaxMem=    33554432 cpu:         1.2
 (Enter /opt/app/gaussian09/e01/g09/l914.exe)
 RHF ground state
 MDV=    33554432 DFT=T DoStab=F Mixed=T DoRPA=T DoScal=F NonHer=T
 Would need an additional          5105400000 words for in-memory AO integral storage.
 Making orbital integer symmetry assigments:
    40 initial guesses have been made.
 Convergence on wavefunction:    0.001000000000000
 Davidson Disk Diagonalization:  ConvIn= 1.00D-03 SkipCon=T Conv= 1.00D-03.
 Max sub-space:   200 roots to seek:    40 dimension of matrix:        22796
 Iteration     1 Dimension    40 NMult     0 NNew     40
 CISAX will form    40 AO SS matrices at one time.
 NMat=    40 NSing=    40 JSym2X= 0.
 FoFJK:  IHMeth= 1 ICntrl=       0 DoSepK=F KAlg= 0 I1Cent=   0 FoldK=F
 IRaf=         0 NMat=  80 IRICut=     100 DoRegI=T DoRafI=T ISym2E= 0.
 FoFCou: FMM=F IPFlag=           0 FMFlag=      100000 FMFlg1=           0
         NFxFlg=           0 DoJE=F BraDBF=F KetDBF=F FulRan=T
         wScrn=  0.000000 ICntrl=       0 IOpCl=  0 I1Cent=           0 NGrid=           0
         NMat0=   80 NMatS0=     40 NMatT0=    0 NMatD0=   80 NMtDS0=    0 NMtDT0=    0
 Symmetry not used in FoFCou.
 New state      3 was old state      6
 New state      5 was old state      3
 New state      6 was old state      5
 New state      7 was old state      9
 New state      8 was old state      7
 New state      9 was old state      8
 New state     10 was old state     13
 Excitation Energies [eV] at current iteration:
 Root      1 :     2.982529742583438
 Root      2 :     3.063912496737626
 Root      3 :     3.391592639719001
 Root      4 :     3.844412093236797
 Root      5 :     4.004991269932693
 Root      6 :     4.165225793257999
 Root      7 :     4.638398819450992
 Root      8 :     4.831179933988292
 Root      9 :     4.944779191257538
 Root     10 :     4.947325262453041
 Root     11 :     5.174243432999103
 Root     12 :     5.358052948112224
 Root     13 :     5.425410308249742
 Root     14 :     5.483537295229915
 Root     15 :     5.579155108671435
 Root     16 :     5.773091157683798
 Root     17 :     5.815851498071057
 Root     18 :     5.824879098715624
 Root     19 :     5.830172861056139
 Root     20 :     5.959965365592446
 Root     21 :     6.031061450619768
 Root     22 :     6.117741018485525
 Root     23 :     6.136790236332487
 Root     24 :     6.209520846345760
 Root     25 :     6.363903975637250
 Root     26 :     6.370538662609651
 Root     27 :     6.435987454105773
 Root     28 :     6.532773667918204
 Root     29 :     6.628748260775805
 Root     30 :     6.641668190485828
 Root     31 :     6.697826644590015
 Root     32 :     6.709865850061247
 Root     33 :     6.768995940875987
 Root     34 :     6.831558029242337
 Root     35 :     6.861184025924855
 Root     36 :     6.977370157376170
 Root     37 :     7.301618199175221
 Root     38 :     7.360021883069534
 Root     39 :     7.857779716723787
 Root     40 :     7.899955942858109
 Iteration     2 Dimension    60 NMult    40 NNew     20
 CISAX will form    20 AO SS matrices at one time.
 NMat=    20 NSing=    20 JSym2X= 0.
 Root      1 not converged, maximum delta is    0.055713442737200
 Root      2 not converged, maximum delta is    0.038063723208196
 Root      3 not converged, maximum delta is    0.036750070964957
 Root      4 not converged, maximum delta is    0.067149201522308
 Root      5 not converged, maximum delta is    0.057300251270509
 Root      6 not converged, maximum delta is    0.093623036243001
 New state      7 was old state      8
 Root      7 not converged, maximum delta is    0.111274394023533
 New state      8 was old state      7
 Root      8 not converged, maximum delta is    0.034014729988477
 Root      9 not converged, maximum delta is    0.066302728666621
 Root     10 not converged, maximum delta is    0.060179242860233
 Excitation Energies [eV] at current iteration:
 Root      1 :     2.728757119460870   Change is   -0.253772623122568
 Root      2 :     2.995032479208684   Change is   -0.068880017528942
 Root      3 :     3.321137551522313   Change is   -0.070455088196688
 Root      4 :     3.669522368777764   Change is   -0.174889724459034
 Root      5 :     3.844166455311811   Change is   -0.160824814620882
 Root      6 :     4.002940305997543   Change is   -0.162285487260456
 Root      7 :     4.496013764318380   Change is   -0.335166169669912
 Root      8 :     4.607101976637376   Change is   -0.031296842813615
 Root      9 :     4.663249996243288   Change is   -0.281529195014250
 Root     10 :     4.906729257130404   Change is   -0.040596005322637
 Iteration     3 Dimension    80 NMult    60 NNew     20
 CISAX will form    20 AO SS matrices at one time.
 NMat=    20 NSing=    20 JSym2X= 0.
 Root      1 not converged, maximum delta is    0.007801112429118
 Root      2 not converged, maximum delta is    0.002660817996126
 Root      3 not converged, maximum delta is    0.002659338921543
 Root      4 not converged, maximum delta is    0.003675207320642
 Root      5 not converged, maximum delta is    0.014217077357989
 Root      6 not converged, maximum delta is    0.011280201268099
 Root      7 not converged, maximum delta is    0.027407460528796
 Root      8 not converged, maximum delta is    0.002685008060403
 Root      9 not converged, maximum delta is    0.020435420675975
 Root     10 not converged, maximum delta is    0.004254560714572
 Excitation Energies [eV] at current iteration:
 Root      1 :     2.714997000871460   Change is   -0.013760118589410
 Root      2 :     2.993123265439577   Change is   -0.001909213769107
 Root      3 :     3.319795977302936   Change is   -0.001341574219378
 Root      4 :     3.664728153878358   Change is   -0.004794214899406
 Root      5 :     3.830610316945589   Change is   -0.013556138366222
 Root      6 :     3.992282427615752   Change is   -0.010657878381791
 Root      7 :     4.462603402627617   Change is   -0.033410361690762
 Root      8 :     4.606327908003012   Change is   -0.000774068634364
 Root      9 :     4.643259689529554   Change is   -0.019990306713734
 Root     10 :     4.905721144738191   Change is   -0.001008112392213
 Iteration     4 Dimension   100 NMult    80 NNew     20
 CISAX will form    20 AO SS matrices at one time.
 NMat=    20 NSing=    20 JSym2X= 0.
 Root      1 not converged, maximum delta is    0.001685837220552
 Root      2 has converged.
 Root      3 has converged.
 Root      4 not converged, maximum delta is    0.001971586629573
 Root      5 not converged, maximum delta is    0.002273570942541
 Root      6 not converged, maximum delta is    0.001728143137587
 Root      7 not converged, maximum delta is    0.007830804842707
 Root      8 has converged.
 Root      9 not converged, maximum delta is    0.002503258030863
 Root     10 has converged.
 Excitation Energies [eV] at current iteration:
 Root      1 :     2.714024598837557   Change is   -0.000972402033903
 Root      2 :     2.993042118864975   Change is   -0.000081146574603
 Root      3 :     3.319719404029600   Change is   -0.000076573273336
 Root      4 :     3.664085881853102   Change is   -0.000642272025256
 Root      5 :     3.829583580420293   Change is   -0.001026736525296
 Root      6 :     3.991570625652419   Change is   -0.000711801963333
 Root      7 :     4.458282451979580   Change is   -0.004320950648038
 Root      8 :     4.606290783833725   Change is   -0.000037124169287
 Root      9 :     4.641434899265618   Change is   -0.001824790263936
 Root     10 :     4.905657926122737   Change is   -0.000063218615454
 Iteration     5 Dimension   112 NMult   100 NNew     12
 CISAX will form    12 AO SS matrices at one time.
 NMat=    12 NSing=    12 JSym2X= 0.
 Root      1 has converged.
 Root      2 has converged.
 Root      3 has converged.
 Root      4 has converged.
 Root      5 has converged.
 Root      6 has converged.
 Root      7 not converged, maximum delta is    0.001666056798191
 Root      8 has converged.
 Root      9 has converged.
 Root     10 has converged.
 Excitation Energies [eV] at current iteration:
 Root      1 :     2.713972480567372   Change is   -0.000052118270184
 Root      2 :     2.993042066468931   Change is   -0.000000052396044
 Root      3 :     3.319719246474751   Change is   -0.000000157554849
 Root      4 :     3.664057218810568   Change is   -0.000028663042533
 Root      5 :     3.829485949432419   Change is   -0.000097630987873
 Root      6 :     3.991519018623664   Change is   -0.000051607028755
 Root      7 :     4.457854428324298   Change is   -0.000428023655281
 Root      8 :     4.606290654184372   Change is   -0.000000129649353
 Root      9 :     4.641275419923123   Change is   -0.000159479342495
 Root     10 :     4.905657848647449   Change is   -0.000000077475289
 Iteration     6 Dimension   114 NMult   112 NNew      2
 CISAX will form     2 AO SS matrices at one time.
 NMat=     2 NSing=     2 JSym2X= 0.
 Root      1 has converged.
 Root      2 has converged.
 Root      3 has converged.
 Root      4 has converged.
 Root      5 has converged.
 Root      6 has converged.
 Root      7 has converged.
 Root      8 has converged.
 Root      9 has converged.
 Root     10 has converged.
 Excitation Energies [eV] at current iteration:
 Root      1 :     2.713972469243430   Change is   -0.000000011323942
 Root      2 :     2.993042054347160   Change is   -0.000000012121770
 Root      3 :     3.319719245375850   Change is   -0.000000001098900
 Root      4 :     3.664057190950399   Change is   -0.000000027860169
 Root      5 :     3.829485892609745   Change is   -0.000000056822674
 Root      6 :     3.991518840482063   Change is   -0.000000178141601
 Root      7 :     4.457831354397210   Change is   -0.000023073927088
 Root      8 :     4.606290636199606   Change is   -0.000000017984765
 Root      9 :     4.641275354151241   Change is   -0.000000065771882
 Root     10 :     4.905657798855582   Change is   -0.000000049791866
 Convergence achieved on expansion vectors.
 ***********************************************************************
 Excited states from <AA,BB:AA,BB> singles matrix:
 ***********************************************************************
 
 1PDM for each excited state written to RWF  633
 Ground to excited state transition densities written to RWF  633
 Ground to excited state transition electric dipole moments (Au):
       state          X           Y           Z        Dip. S.      Osc.
         1        -1.3399     -0.0363      0.0019      1.7967      0.1195
         2        -0.0357     -0.0010     -0.0030      0.0013      0.0001
         3         0.0164      0.0004      0.0108      0.0004      0.0000
         4         0.1117      0.0792      0.0009      0.0188      0.0017
         5         0.6000      0.1432      0.0009      0.3805      0.0357
         6         0.6989     -0.2328     -0.0055      0.5427      0.0531
         7         0.0769     -1.1257      0.0024      1.2731      0.1390
         8         0.0059      0.0049     -0.0023      0.0001      0.0000
         9        -0.2025     -0.0464     -0.0011      0.0432      0.0049
        10        -0.0045     -0.0035     -0.0164      0.0003      0.0000
 Ground to excited state transition velocity dipole moments (Au):
       state          X           Y           Z        Dip. S.      Osc.
         1         0.1355      0.0028     -0.0002      0.0184      0.1227
         2         0.0039      0.0002      0.0007      0.0000      0.0001
         3        -0.0020     -0.0003     -0.0018      0.0000      0.0000
         4        -0.0152     -0.0107     -0.0001      0.0003      0.0017
         5        -0.0869     -0.0211     -0.0001      0.0080      0.0379
         6        -0.1011      0.0383      0.0007      0.0117      0.0531
         7        -0.0126      0.1701     -0.0003      0.0291      0.1184
         8        -0.0011     -0.0008      0.0013      0.0000      0.0000
         9         0.0394      0.0090      0.0001      0.0016      0.0064
        10         0.0008      0.0008      0.0021      0.0000      0.0000
 Ground to excited state transition magnetic dipole moments (Au):
       state          X           Y           Z
         1         0.0050     -0.0171     -0.0720
         2        -0.0874      0.7281      0.0006
         3         0.0133     -0.1884     -0.0094
         4         0.0001      0.0021      1.3693
         5         0.0002      0.0015     -0.1422
         6        -0.0031     -0.0016      0.7915
         7        -0.0002      0.0010     -0.0871
         8        -0.0479      0.0568      0.0068
         9         0.0045      0.0047     -0.8169
        10        -0.0470      0.5001      0.0042
 Ground to excited state transition velocity quadrupole moments (Au):
       state          XX          YY          ZZ          XY          XZ          YZ
         1         0.4185     -0.0462      0.0075      0.0539      0.0001      0.0024
         2         0.0108     -0.0021      0.0004      0.0021     -0.0371     -0.0077
         3        -0.0039      0.0020     -0.0006     -0.0035      0.0069      0.0101
         4        -0.1338      0.1014     -0.0027      0.1752     -0.0013      0.0008
         5         0.6926     -0.1836      0.0201     -0.0226     -0.0009      0.0007
         6         0.0755     -0.1200      0.0162      0.6113      0.0036     -0.0035
         7        -0.0416      0.1628     -0.0002     -0.1318     -0.0006      0.0011
         8        -0.0032     -0.0012     -0.0000      0.0083      0.0028      0.0067
         9         0.6333     -0.0184      0.0016      0.0431      0.0003      0.0020
        10        -0.0044      0.0004      0.0001     -0.0040     -0.0170     -0.0078
 <0|del|b> * <b|rxdel|0> + <0|del|b> * <b|delr+rdel|0>
 Rotatory Strengths (R) in cgs (10**-40 erg-esu-cm/Gauss)
       state          XX          YY          ZZ    R(velocity)    E-M Angle
         1        -0.1582      3.6830      1.0804      1.5350       86.30
         2         0.4611     -1.2066     -0.5968     -0.4475       94.08
         3         0.2289     -0.1024      0.1309      0.0858       90.00
         4        -0.6228     -0.4431      0.0026     -0.3544       90.46
         5        -0.0884     -0.1774      0.0740     -0.0639       90.00
         6         1.8067      1.9005      0.0740      1.2604       89.47
         7         0.7452     -0.0555      0.1687      0.2861       89.23
         8        -0.0479      0.0890      0.0259      0.0224       90.00
         9        -0.0970      0.3371      0.2993      0.1798       89.77
        10         0.8013     -0.0574      0.6825      0.4755       72.42
 1/2[<0|r|b>*<b|rxdel|0> + (<0|rxdel|b>*<b|r|0>)*]
 Rotatory Strengths (R) in cgs (10**-40 erg-esu-cm/Gauss)
       state          XX          YY          ZZ     R(length)
         1         4.7755     -0.4404      0.0983      1.4778
         2        -2.2063      0.5015      0.0012     -0.5678
         3        -0.1544      0.0566      0.0718     -0.0087
         4        -0.0118     -0.1198     -0.8841     -0.3386
         5        -0.0970     -0.1534      0.0859     -0.0548
         6         1.5242     -0.2682      3.0517      1.4359
         7         0.0096      0.7931      0.1461      0.3163
         8         0.1987     -0.1972      0.0109      0.0041
         9         0.6512      0.1550     -0.6296      0.0589
        10        -0.1505      1.2491      0.0489      0.3825
  1/2[<0|del|b>*<b|r|0> + (<0|r|b>*<b|del|0>)*] (Au)
       state          X           Y           Z        Dip. S.   Osc.(frdel)
         1        -0.1815     -0.0001     -0.0000      0.1816      0.1211
         2        -0.0001     -0.0000     -0.0000      0.0001      0.0001
         3        -0.0000     -0.0000     -0.0000      0.0001      0.0000
         4        -0.0017     -0.0008     -0.0000      0.0025      0.0017
         5        -0.0521     -0.0030     -0.0000      0.0552      0.0368
         6        -0.0707     -0.0089     -0.0000      0.0796      0.0531
         7        -0.0010     -0.1915     -0.0000      0.1924      0.1283
         8        -0.0000     -0.0000     -0.0000      0.0000      0.0000
         9        -0.0080     -0.0004     -0.0000      0.0084      0.0056
        10        -0.0000     -0.0000     -0.0000      0.0000      0.0000

 Excitation energies and oscillator strengths:
 
 Excited state symmetry could not be determined.
 Excited State   1:      Singlet-?Sym    2.7140 eV  456.84 nm  f=0.1195  <S**2>=0.000
      58 -> 59         0.70131
 This state for optimization and/or second-order correction.
 Total Energy, E(TD-HF/TD-KS) =  -744.068636173    
 Copying the excited state density for this state as the 1-particle RhoCI density.
 
 Excited state symmetry could not be determined.
 Excited State   2:      Singlet-?Sym    2.9930 eV  414.24 nm  f=0.0001  <S**2>=0.000
      57 -> 59         0.68946
 
 Excited state symmetry could not be determined.
 Excited State   3:      Singlet-?Sym    3.3197 eV  373.48 nm  f=0.0000  <S**2>=0.000
      54 -> 59         0.68007
      57 -> 60         0.14392
 
 Excited state symmetry could not be determined.
 Excited State   4:      Singlet-?Sym    3.6641 eV  338.38 nm  f=0.0017  <S**2>=0.000
      55 -> 59         0.65456
      56 -> 59         0.18182
      58 -> 60        -0.17285
 
 Excited state symmetry could not be determined.
 Excited State   5:      Singlet-?Sym    3.8295 eV  323.76 nm  f=0.0357  <S**2>=0.000
      55 -> 59        -0.21137
      55 -> 60        -0.10599
      56 -> 59         0.64033
      58 -> 60        -0.13717
 
 Excited state symmetry could not be determined.
 Excited State   6:      Singlet-?Sym    3.9915 eV  310.62 nm  f=0.0531  <S**2>=0.000
      55 -> 59         0.11938
      56 -> 59         0.17590
      58 -> 60         0.66467
 
 Excited state symmetry could not be determined.
 Excited State   7:      Singlet-?Sym    4.4578 eV  278.13 nm  f=0.1390  <S**2>=0.000
      53 -> 59         0.67875
      55 -> 61        -0.10937
 
 Excited state symmetry could not be determined.
 Excited State   8:      Singlet-?Sym    4.6063 eV  269.16 nm  f=0.0000  <S**2>=0.000
      54 -> 59        -0.15735
      57 -> 60         0.68458
 
 Excited state symmetry could not be determined.
 Excited State   9:      Singlet-?Sym    4.6413 eV  267.13 nm  f=0.0049  <S**2>=0.000
      53 -> 60         0.10241
      58 -> 61         0.68488
 
 Excited state symmetry could not be determined.
 Excited State  10:      Singlet-?Sym    4.9057 eV  252.74 nm  f=0.0000  <S**2>=0.000
      54 -> 60         0.68925
      57 -> 59        -0.11083
 SavETr:  write IOETrn=   770 NScale= 10 NData=  16 NLR=1 NState=   10 LETran=     190.
 Leave Link  914 at Mon May 31 16:15:28 2021, MaxMem=    33554432 cpu:      2462.4
 (Enter /opt/app/gaussian09/e01/g09/l601.exe)
 Copying SCF densities to generalized density rwf, IOpCl= 0 IROHF=0.

 **********************************************************************

            Population analysis using the SCF density.

 **********************************************************************

 Alpha  occ. eigenvalues --  -19.15380 -19.15156 -14.36539 -10.29120 -10.28895
 Alpha  occ. eigenvalues --  -10.26614 -10.22032 -10.22009 -10.21857 -10.21820
 Alpha  occ. eigenvalues --  -10.21695 -10.21652 -10.21577 -10.21381 -10.21190
 Alpha  occ. eigenvalues --  -10.21141 -10.20264  -1.05143  -1.04928  -0.94810
 Alpha  occ. eigenvalues --   -0.88494  -0.86515  -0.80778  -0.77351  -0.76758
 Alpha  occ. eigenvalues --   -0.75604  -0.68486  -0.66502  -0.64590  -0.61413
 Alpha  occ. eigenvalues --   -0.58543  -0.57406  -0.55466  -0.52993  -0.50661
 Alpha  occ. eigenvalues --   -0.49718  -0.48213  -0.47418  -0.46676  -0.44805
 Alpha  occ. eigenvalues --   -0.44653  -0.44255  -0.43597  -0.42621  -0.40935
 Alpha  occ. eigenvalues --   -0.39774  -0.39462  -0.38646  -0.37176  -0.36686
 Alpha  occ. eigenvalues --   -0.36280  -0.33153  -0.28285  -0.27656  -0.27214
 Alpha  occ. eigenvalues --   -0.27195  -0.26423  -0.22502
 Alpha virt. eigenvalues --   -0.10958  -0.06081  -0.03157  -0.01150  -0.00479
 Alpha virt. eigenvalues --    0.00637   0.01360   0.02421   0.02725   0.03762
 Alpha virt. eigenvalues --    0.04415   0.04606   0.04951   0.05024   0.05060
 Alpha virt. eigenvalues --    0.06514   0.06699   0.07028   0.07561   0.07975
 Alpha virt. eigenvalues --    0.09189   0.09810   0.09869   0.10887   0.11606
 Alpha virt. eigenvalues --    0.12015   0.12166   0.12735   0.13165   0.13665
 Alpha virt. eigenvalues --    0.14021   0.14544   0.15299   0.16139   0.16332
 Alpha virt. eigenvalues --    0.16947   0.17061   0.17482   0.17858   0.18044
 Alpha virt. eigenvalues --    0.18374   0.18644   0.19366   0.19702   0.19794
 Alpha virt. eigenvalues --    0.19812   0.20415   0.20844   0.21286   0.21745
 Alpha virt. eigenvalues --    0.22464   0.22578   0.23034   0.23484   0.23611
 Alpha virt. eigenvalues --    0.24004   0.24182   0.25213   0.25522   0.26081
 Alpha virt. eigenvalues --    0.26478   0.26857   0.27151   0.27632   0.28251
 Alpha virt. eigenvalues --    0.28675   0.28907   0.29247   0.29770   0.30016
 Alpha virt. eigenvalues --    0.30520   0.30743   0.32134   0.32680   0.32729
 Alpha virt. eigenvalues --    0.32779   0.33106   0.34432   0.34810   0.36097
 Alpha virt. eigenvalues --    0.36536   0.37874   0.38591   0.39089   0.39409
 Alpha virt. eigenvalues --    0.40769   0.41477   0.41555   0.44053   0.44283
 Alpha virt. eigenvalues --    0.48013   0.48965   0.49612   0.52881   0.53822
 Alpha virt. eigenvalues --    0.59488   0.60650   0.63940   0.65837   0.66904
 Alpha virt. eigenvalues --    0.66935   0.67205   0.68890   0.69040   0.69440
 Alpha virt. eigenvalues --    0.69911   0.71381   0.71906   0.72712   0.73010
 Alpha virt. eigenvalues --    0.73426   0.73545   0.74947   0.76344   0.76819
 Alpha virt. eigenvalues --    0.77388   0.77983   0.79208   0.79549   0.80808
 Alpha virt. eigenvalues --    0.81575   0.84508   0.84783   0.85459   0.89307
 Alpha virt. eigenvalues --    0.89776   0.91197   0.92299   0.92597   0.93392
 Alpha virt. eigenvalues --    0.94813   0.95222   0.95846   1.00786   1.01867
 Alpha virt. eigenvalues --    1.03450   1.05213   1.06586   1.06852   1.08415
 Alpha virt. eigenvalues --    1.10567   1.12215   1.12850   1.14642   1.15143
 Alpha virt. eigenvalues --    1.16593   1.18015   1.19185   1.19758   1.20766
 Alpha virt. eigenvalues --    1.21923   1.22157   1.23269   1.23773   1.23857
 Alpha virt. eigenvalues --    1.24652   1.25731   1.26986   1.27289   1.30540
 Alpha virt. eigenvalues --    1.32308   1.33661   1.34651   1.35177   1.35793
 Alpha virt. eigenvalues --    1.37290   1.38627   1.39817   1.40831   1.43265
 Alpha virt. eigenvalues --    1.44552   1.45153   1.45518   1.46195   1.46358
 Alpha virt. eigenvalues --    1.46925   1.48096   1.48602   1.50305   1.53145
 Alpha virt. eigenvalues --    1.59264   1.61154   1.63015   1.66758   1.68756
 Alpha virt. eigenvalues --    1.70570   1.70970   1.72009   1.74253   1.75178
 Alpha virt. eigenvalues --    1.79636   1.79759   1.81170   1.83395   1.85009
 Alpha virt. eigenvalues --    1.85990   1.87804   1.87943   1.91864   1.93832
 Alpha virt. eigenvalues --    1.94744   1.95974   1.96048   2.00039   2.00764
 Alpha virt. eigenvalues --    2.03001   2.03658   2.05329   2.06580   2.07556
 Alpha virt. eigenvalues --    2.10094   2.13815   2.15365   2.17121   2.17895
 Alpha virt. eigenvalues --    2.19565   2.20017   2.21491   2.23208   2.25487
 Alpha virt. eigenvalues --    2.26865   2.27916   2.28295   2.28876   2.29011
 Alpha virt. eigenvalues --    2.32838   2.36446   2.40630   2.43049   2.45322
 Alpha virt. eigenvalues --    2.47454   2.50240   2.52477   2.55114   2.55428
 Alpha virt. eigenvalues --    2.58209   2.59493   2.60717   2.64020   2.68314
 Alpha virt. eigenvalues --    2.70015   2.71076   2.71623   2.73188   2.76420
 Alpha virt. eigenvalues --    2.76609   2.79991   2.82993   2.85709   2.87017
 Alpha virt. eigenvalues --    2.89961   2.94296   3.00626   3.05881   3.11082
 Alpha virt. eigenvalues --    3.18014   3.23132   3.24718   3.35128   3.42487
 Alpha virt. eigenvalues --    3.48954   4.07092   4.22471   4.23791   4.25057
 Alpha virt. eigenvalues --    4.29044   4.30696   4.32320   4.32955   4.35373
 Alpha virt. eigenvalues --    4.41677   4.43016   4.46388   4.46855   4.68255
 Alpha virt. eigenvalues --    4.73805   4.81851   5.09844
     Molecular Orbital Coefficients:
                           1         2         3         4         5
                           O         O         O         O         O
     Eigenvalues --   -19.15380 -19.15156 -14.36539 -10.29120 -10.28895
   1 1   C  1S         -0.00000   0.00001   0.00000  -0.00003   0.00001
   2        2S         -0.00001   0.00003   0.00001  -0.00009   0.00006
   3        2PX         0.00000   0.00001   0.00000  -0.00003  -0.00007
   4        2PY        -0.00000  -0.00000   0.00000   0.00001  -0.00003
   5        2PZ         0.00000   0.00000   0.00000  -0.00000   0.00000
   6        3S          0.00025  -0.00031  -0.00002   0.00094  -0.00203
   7        3PX         0.00021  -0.00030  -0.00006   0.00063  -0.00087
   8        3PY        -0.00007   0.00008   0.00004  -0.00051   0.00002
   9        3PZ        -0.00000  -0.00000  -0.00000   0.00000   0.00000
  10        4S          0.01660   0.00698   0.00324  -0.03233   0.00468
  11        4PX         0.00246   0.00312  -0.00007  -0.00921   0.00382
  12        4PY         0.00062   0.00635  -0.00113  -0.01185   0.01083
  13        4PZ         0.00001  -0.00001   0.00000   0.00003  -0.00002
  14        5XX         0.00000  -0.00001  -0.00000  -0.00002  -0.00002
  15        5YY        -0.00000  -0.00000  -0.00000   0.00002  -0.00001
  16        5ZZ        -0.00000   0.00002   0.00000  -0.00004  -0.00000
  17        5XY        -0.00000  -0.00001   0.00000   0.00001  -0.00003
  18        5XZ         0.00000   0.00000  -0.00000   0.00000   0.00000
  19        5YZ         0.00000   0.00000  -0.00000  -0.00000   0.00000
  20 2   C  1S          0.00001  -0.00000   0.00000  -0.00003  -0.00004
  21        2S          0.00003  -0.00004   0.00001  -0.00008  -0.00026
  22        2PX         0.00001  -0.00000   0.00000  -0.00008   0.00010
  23        2PY        -0.00001   0.00002   0.00000   0.00007  -0.00002
  24        2PZ         0.00000  -0.00000  -0.00000   0.00000   0.00000
  25        3S         -0.00046   0.00009   0.00005  -0.00252   0.00586
  26        3PX        -0.00016  -0.00005   0.00004  -0.00079   0.00117
  27        3PY         0.00023  -0.00016   0.00003   0.00040  -0.00249
  28        3PZ        -0.00000   0.00000   0.00000  -0.00000   0.00000
  29        4S         -0.00313  -0.00251  -0.00950   0.01703   0.08967
  30        4PX         0.00515   0.00834  -0.00168  -0.02093   0.03053
  31        4PY         0.00298   0.00165   0.00125  -0.01196  -0.00232
  32        4PZ        -0.00003  -0.00000   0.00001   0.00002  -0.00001
  33        5XX        -0.00001   0.00002   0.00001  -0.00003   0.00007
  34        5YY        -0.00000   0.00000   0.00000  -0.00005   0.00007
  35        5ZZ         0.00001   0.00001   0.00000  -0.00006  -0.00008
  36        5XY        -0.00000   0.00004   0.00000  -0.00002  -0.00004
  37        5XZ         0.00000  -0.00000   0.00000  -0.00000   0.00000
  38        5YZ        -0.00000   0.00000   0.00000   0.00000  -0.00000
  39 3   C  1S          0.00001  -0.00000  -0.00000   0.00005   0.00194
  40        2S          0.00002   0.00008  -0.00001   0.00020  -0.00021
  41        2PX         0.00001  -0.00000  -0.00000   0.00004  -0.00029
  42        2PY        -0.00004  -0.00002   0.00000   0.00003  -0.00008
  43        2PZ         0.00000  -0.00000  -0.00000  -0.00000   0.00000
  44        3S          0.00002  -0.00042   0.00025  -0.00542   0.00889
  45        3PX        -0.00037  -0.00038   0.00006  -0.00582   0.01050
  46        3PY         0.00015   0.00016  -0.00040   0.00196  -0.00085
  47        3PZ        -0.00000  -0.00000   0.00000   0.00000   0.00000
  48        4S          0.00188   0.00143   0.01430  -0.10135   0.04064
  49        4PX         0.00423   0.00597  -0.00609  -0.01495   0.06460
  50        4PY        -0.00239  -0.00577  -0.00012   0.04337  -0.04917
  51        4PZ         0.00005   0.00000  -0.00004  -0.00006   0.00009
  52        5XX         0.00000  -0.00000  -0.00000   0.00001  -0.00024
  53        5YY         0.00004  -0.00013   0.00001   0.00001  -0.00020
  54        5ZZ         0.00002  -0.00001  -0.00000   0.00002  -0.00014
  55        5XY         0.00001  -0.00003  -0.00000   0.00007  -0.00017
  56        5XZ        -0.00000   0.00000   0.00000  -0.00000   0.00000
  57        5YZ         0.00000   0.00000   0.00000  -0.00000  -0.00000
  58 4   C  1S         -0.00001   0.00000   0.00000   0.00185   0.00005
  59        2S          0.00006   0.00001   0.00002  -0.00020   0.00018
  60        2PX        -0.00002   0.00000  -0.00000  -0.00030   0.00004
  61        2PY         0.00002   0.00005   0.00001  -0.00001  -0.00003
  62        2PZ        -0.00000  -0.00000   0.00000  -0.00000   0.00000
  63        3S         -0.00012   0.00030  -0.00024   0.00878  -0.00551
  64        3PX        -0.00019  -0.00028  -0.00011   0.00981  -0.00467
  65        3PY        -0.00000  -0.00011  -0.00049   0.00391  -0.00343
  66        3PZ         0.00001   0.00000   0.00000  -0.00002   0.00001
  67        4S         -0.00709  -0.00488   0.00895   0.07567  -0.12422
  68        4PX         0.00455  -0.00153   0.00732   0.02568  -0.02673
  69        4PY         0.00413  -0.00463  -0.00465   0.06614  -0.03152
  70        4PZ        -0.00005   0.00001   0.00004  -0.00013   0.00005
  71        5XX        -0.00005   0.00000  -0.00001  -0.00029   0.00004
  72        5YY        -0.00012   0.00003  -0.00000  -0.00013  -0.00004
  73        5ZZ        -0.00002   0.00001   0.00000  -0.00013   0.00001
  74        5XY         0.00007  -0.00002   0.00000   0.00014  -0.00005
  75        5XZ        -0.00000   0.00000   0.00000  -0.00000   0.00000
  76        5YZ         0.00000  -0.00000  -0.00000   0.00000   0.00000
  77 5   C  1S         -0.00000   0.00001   0.00000  -0.00003  -0.00004
  78        2S         -0.00004   0.00003   0.00001  -0.00023  -0.00010
  79        2PX         0.00001  -0.00000  -0.00002   0.00011  -0.00006
  80        2PY        -0.00002   0.00000   0.00000   0.00004  -0.00009
  81        2PZ         0.00000   0.00000   0.00000   0.00000   0.00000
  82        3S          0.00033  -0.00047  -0.00039   0.00569  -0.00214
  83        3PX        -0.00003  -0.00002   0.00013   0.00024  -0.00058
  84        3PY         0.00014  -0.00025  -0.00011   0.00283  -0.00037
  85        3PZ        -0.00000   0.00000  -0.00000  -0.00001   0.00000
  86        4S          0.01826   0.00419  -0.00388   0.05145   0.00795
  87        4PX         0.00474  -0.00492   0.00523   0.02218  -0.02307
  88        4PY         0.00312   0.00007  -0.00053   0.00555   0.00396
  89        4PZ         0.00001   0.00000   0.00001  -0.00001  -0.00000
  90        5XX         0.00003  -0.00000  -0.00001   0.00006  -0.00004
  91        5YY        -0.00002  -0.00000   0.00000   0.00009  -0.00003
  92        5ZZ         0.00001   0.00001  -0.00000  -0.00007  -0.00007
  93        5XY        -0.00002   0.00000   0.00001   0.00002   0.00002
  94        5XZ        -0.00000  -0.00000   0.00000   0.00000  -0.00000
  95        5YZ         0.00000   0.00000  -0.00000  -0.00000  -0.00000
  96 6   C  1S          0.00001  -0.00000  -0.00001   0.00001  -0.00002
  97        2S          0.00004  -0.00002  -0.00003   0.00007  -0.00006
  98        2PX         0.00001   0.00000   0.00000  -0.00009  -0.00002
  99        2PY         0.00000   0.00000   0.00000   0.00001  -0.00002
 100        2PZ        -0.00000   0.00000   0.00000  -0.00000   0.00000
 101        3S         -0.00038   0.00032   0.00035  -0.00225   0.00054
 102        3PX        -0.00030   0.00020   0.00016  -0.00086   0.00031
 103        3PY        -0.00009   0.00014  -0.00002  -0.00042   0.00057
 104        3PZ         0.00000  -0.00000   0.00000   0.00000  -0.00000
 105        4S         -0.00593  -0.00160   0.00697   0.01154  -0.02771
 106        4PX        -0.00078  -0.00381   0.00233   0.00830  -0.01182
 107        4PY        -0.00253   0.00385  -0.00199  -0.00742   0.00877
 108        4PZ        -0.00000  -0.00001  -0.00001   0.00001  -0.00001
 109        5XX        -0.00001   0.00000   0.00000  -0.00003  -0.00001
 110        5YY         0.00001   0.00000  -0.00001  -0.00000   0.00002
 111        5ZZ         0.00002  -0.00000  -0.00001   0.00000  -0.00003
 112        5XY         0.00001  -0.00000  -0.00000   0.00002  -0.00002
 113        5XZ         0.00000   0.00000   0.00000  -0.00000   0.00000
 114        5YZ         0.00000  -0.00000  -0.00000  -0.00000  -0.00000
 115 7   C  1S         -0.00000  -0.00003  -0.00000  -0.00126   0.99333
 116        2S         -0.00002   0.00033  -0.00000  -0.00040   0.05099
 117        2PX        -0.00001  -0.00005  -0.00000   0.00000  -0.00011
 118        2PY         0.00000   0.00031   0.00001   0.00001   0.00078
 119        2PZ        -0.00000  -0.00000   0.00000  -0.00000  -0.00000
 120        3S          0.00022   0.00003  -0.00039   0.00550  -0.02788
 121        3PX         0.00008   0.00019  -0.00038   0.00081  -0.00164
 122        3PY        -0.00029  -0.00177  -0.00002  -0.00486   0.01205
 123        3PZ         0.00000   0.00000  -0.00000   0.00000  -0.00001
 124        4S          0.00726  -0.00472  -0.00015  -0.03487  -0.02672
 125        4PX         0.00580  -0.00089   0.00171  -0.00884   0.01205
 126        4PY        -0.00138   0.00384   0.00056   0.00309   0.02280
 127        4PZ         0.00001   0.00000   0.00001  -0.00002  -0.00000
 128        5XX        -0.00002  -0.00013  -0.00000   0.00000  -0.00879
 129        5YY         0.00001  -0.00049  -0.00001  -0.00005  -0.00783
 130        5ZZ        -0.00000  -0.00020  -0.00000  -0.00009  -0.00879
 131        5XY        -0.00001   0.00006  -0.00000   0.00001  -0.00016
 132        5XZ         0.00000  -0.00000  -0.00000  -0.00000   0.00000
 133        5YZ         0.00000   0.00000  -0.00000  -0.00000  -0.00000
 134 8   C  1S         -0.00004   0.00000  -0.00001   0.99333   0.00113
 135        2S          0.00030  -0.00001  -0.00005   0.05090  -0.00025
 136        2PX         0.00005  -0.00000   0.00002   0.00008   0.00001
 137        2PY        -0.00036  -0.00000  -0.00000  -0.00083  -0.00002
 138        2PZ         0.00000   0.00000  -0.00000   0.00000   0.00000
 139        3S          0.00068   0.00036   0.00128  -0.02886   0.00481
 140        3PX        -0.00025   0.00006   0.00081   0.00122  -0.00080
 141        3PY         0.00131   0.00016   0.00074  -0.01255   0.00487
 142        3PZ        -0.00001  -0.00000  -0.00000   0.00003  -0.00001
 143        4S          0.01716   0.00151  -0.00469  -0.03392  -0.01832
 144        4PX         0.01474   0.00067   0.01195   0.00271  -0.03307
 145        4PY        -0.00276  -0.00018   0.00143  -0.02072  -0.00442
 146        4PZ        -0.00005  -0.00001  -0.00009   0.00003   0.00011
 147        5XX        -0.00014  -0.00001   0.00004  -0.00875  -0.00002
 148        5YY        -0.00037   0.00002  -0.00001  -0.00782  -0.00009
 149        5ZZ        -0.00020   0.00000  -0.00001  -0.00876  -0.00011
 150        5XY         0.00003  -0.00000  -0.00000  -0.00010   0.00001
 151        5XZ         0.00000   0.00000  -0.00000   0.00000  -0.00000
 152        5YZ         0.00000  -0.00000   0.00000  -0.00000  -0.00000
 153 9   C  1S          0.00000   0.00000  -0.00001   0.00214   0.00003
 154        2S          0.00006   0.00000   0.00000  -0.00011   0.00016
 155        2PX        -0.00000  -0.00002  -0.00004   0.00036  -0.00005
 156        2PY        -0.00000   0.00004  -0.00003   0.00009  -0.00003
 157        2PZ        -0.00000   0.00000   0.00000  -0.00000   0.00000
 158        3S          0.00018   0.00044   0.00102   0.00761  -0.00540
 159        3PX         0.00063   0.00042   0.00168  -0.01260   0.00568
 160        3PY         0.00008   0.00018   0.00179   0.00105  -0.00251
 161        3PZ         0.00000   0.00000  -0.00001   0.00002  -0.00001
 162        4S          0.05100  -0.00068  -0.01006   0.09709  -0.14553
 163        4PX         0.01898   0.00409  -0.00107  -0.03390  -0.00946
 164        4PY        -0.00575  -0.00396   0.01186   0.05762  -0.07452
 165        4PZ         0.00008   0.00000   0.00011   0.00004  -0.00006
 166        5XX         0.00003   0.00000  -0.00002  -0.00027  -0.00001
 167        5YY        -0.00009   0.00004  -0.00006  -0.00018  -0.00003
 168        5ZZ        -0.00000   0.00001  -0.00002  -0.00010   0.00000
 169        5XY        -0.00003   0.00000   0.00003  -0.00014   0.00007
 170        5XZ        -0.00000   0.00000   0.00000  -0.00000   0.00000
 171        5YZ        -0.00000   0.00000   0.00000   0.00000   0.00000
 172 10  C  1S          0.00000  -0.00000   0.00001   0.00005   0.00187
 173        2S          0.00002   0.00008   0.00006   0.00019  -0.00024
 174        2PX         0.00000   0.00001   0.00000  -0.00006   0.00030
 175        2PY        -0.00004  -0.00002   0.00000   0.00002   0.00001
 176        2PZ        -0.00000   0.00000   0.00000  -0.00000   0.00000
 177        3S         -0.00008  -0.00049  -0.00145  -0.00522   0.00912
 178        3PX         0.00013   0.00022  -0.00104   0.00551  -0.00960
 179        3PY         0.00027   0.00044   0.00079   0.00356  -0.00416
 180        3PZ        -0.00000  -0.00000   0.00000   0.00001  -0.00002
 181        4S         -0.00942   0.00005  -0.01252  -0.09611   0.09935
 182        4PX         0.00525  -0.00383  -0.00203  -0.01030  -0.01089
 183        4PY         0.00310  -0.00626   0.00446   0.05013  -0.08729
 184        4PZ        -0.00007  -0.00002  -0.00001   0.00010  -0.00014
 185        5XX         0.00000  -0.00003  -0.00001   0.00005  -0.00032
 186        5YY         0.00002  -0.00010  -0.00000  -0.00003  -0.00012
 187        5ZZ         0.00001  -0.00001   0.00001   0.00002  -0.00015
 188        5XY        -0.00001   0.00007   0.00002  -0.00006   0.00012
 189        5XZ        -0.00000   0.00000   0.00000  -0.00000  -0.00000
 190        5YZ         0.00000  -0.00000  -0.00000  -0.00000   0.00000
 191 11  C  1S          0.00000  -0.00000  -0.00001  -0.00004  -0.00003
 192        2S          0.00002  -0.00003  -0.00004  -0.00009  -0.00025
 193        2PX         0.00000  -0.00001  -0.00001   0.00006  -0.00009
 194        2PY        -0.00000   0.00003  -0.00000   0.00009  -0.00004
 195        2PZ        -0.00000  -0.00000   0.00000   0.00000  -0.00000
 196        3S         -0.00017   0.00012   0.00091  -0.00261   0.00564
 197        3PX         0.00014   0.00017   0.00018   0.00074  -0.00033
 198        3PY         0.00007  -0.00018  -0.00063   0.00084  -0.00275
 199        3PZ         0.00000   0.00000  -0.00000   0.00000  -0.00001
 200        4S         -0.01466  -0.00273   0.00598   0.01037   0.08257
 201        4PX         0.00037  -0.00858   0.00452   0.01356  -0.01204
 202        4PY         0.00120  -0.00104  -0.00071  -0.00486  -0.00801
 203        4PZ         0.00003  -0.00003   0.00002   0.00002  -0.00006
 204        5XX        -0.00000   0.00003  -0.00001  -0.00004   0.00006
 205        5YY        -0.00000  -0.00002   0.00000  -0.00004   0.00010
 206        5ZZ         0.00001   0.00001  -0.00001  -0.00006  -0.00007
 207        5XY        -0.00000  -0.00003   0.00000   0.00002   0.00002
 208        5XZ        -0.00000  -0.00000   0.00000  -0.00000   0.00000
 209        5YZ        -0.00000  -0.00000   0.00000   0.00000   0.00000
 210 12  H  1S         -0.00000   0.00003   0.00001   0.00006  -0.00003
 211        2S          0.00004   0.00026   0.00021  -0.00040   0.00070
 212 13  C  1S          0.00000   0.00001   0.00001  -0.00003   0.00001
 213        2S          0.00001   0.00004   0.00004  -0.00009   0.00005
 214        2PX        -0.00001  -0.00001   0.00001   0.00002   0.00008
 215        2PY         0.00000  -0.00000   0.00001   0.00001  -0.00000
 216        2PZ        -0.00000  -0.00000   0.00000   0.00000   0.00000
 217        3S         -0.00011  -0.00041  -0.00122   0.00159  -0.00187
 218        3PX         0.00007   0.00031   0.00041  -0.00021   0.00075
 219        3PY        -0.00006   0.00016   0.00043  -0.00096   0.00020
 220        3PZ         0.00000   0.00000   0.00000  -0.00000   0.00000
 221        4S         -0.00587   0.00555  -0.00466  -0.01913   0.00414
 222        4PX        -0.00377  -0.00506   0.00294   0.00633   0.00259
 223        4PY         0.00300   0.00550  -0.00246  -0.00395  -0.00217
 224        4PZ        -0.00001  -0.00000  -0.00001   0.00001   0.00001
 225        5XX         0.00000  -0.00001   0.00000  -0.00002  -0.00004
 226        5YY         0.00001   0.00000   0.00001   0.00001   0.00000
 227        5ZZ         0.00000   0.00002   0.00000  -0.00004  -0.00001
 228        5XY        -0.00000   0.00001  -0.00001  -0.00002   0.00003
 229        5XZ         0.00000  -0.00000  -0.00000  -0.00000  -0.00000
 230        5YZ        -0.00000  -0.00000  -0.00000   0.00000   0.00000
 231 14  C  1S          0.00000  -0.00000  -0.00002   0.00001  -0.00003
 232        2S          0.00002  -0.00002  -0.00002   0.00003  -0.00007
 233        2PX         0.00000   0.00000   0.00001   0.00007   0.00003
 234        2PY         0.00001   0.00000   0.00000   0.00003  -0.00001
 235        2PZ         0.00000  -0.00000  -0.00000  -0.00000   0.00000
 236        3S         -0.00011   0.00036   0.00138  -0.00163   0.00036
 237        3PX        -0.00015  -0.00031  -0.00103   0.00095  -0.00031
 238        3PY         0.00003   0.00010   0.00054  -0.00120   0.00041
 239        3PZ        -0.00000  -0.00000  -0.00000   0.00000  -0.00000
 240        4S         -0.04776  -0.00133   0.00370   0.00671  -0.02586
 241        4PX         0.00815   0.00240  -0.00178  -0.00245   0.00373
 242        4PY         0.01587   0.00565  -0.00315  -0.00425  -0.00404
 243        4PZ         0.00010   0.00003   0.00004  -0.00001   0.00001
 244        5XX         0.00001   0.00000   0.00001  -0.00003  -0.00003
 245        5YY        -0.00001  -0.00000  -0.00011   0.00002   0.00001
 246        5ZZ         0.00001  -0.00000  -0.00004  -0.00001  -0.00003
 247        5XY        -0.00001   0.00000  -0.00002  -0.00001   0.00001
 248        5XZ         0.00000   0.00000   0.00000  -0.00000  -0.00000
 249        5YZ         0.00000  -0.00000  -0.00000  -0.00000   0.00000
 250 15  C  1S          0.00002   0.00001   0.00003  -0.00005  -0.00012
 251        2S          0.00005   0.00004   0.00022  -0.00029  -0.00012
 252        2PX        -0.00002  -0.00000   0.00006  -0.00006   0.00008
 253        2PY        -0.00002   0.00000  -0.00025  -0.00000  -0.00005
 254        2PZ        -0.00000   0.00000  -0.00000   0.00000   0.00000
 255        3S         -0.00069  -0.00051  -0.00059   0.00608  -0.00222
 256        3PX         0.00038   0.00017   0.00044  -0.00359   0.00093
 257        3PY        -0.00044  -0.00040  -0.00226   0.00356   0.00042
 258        3PZ         0.00000  -0.00000   0.00000   0.00000   0.00000
 259        4S         -0.01770   0.00123   0.00338   0.04595   0.03808
 260        4PX         0.04413   0.00656  -0.00562  -0.01602  -0.00309
 261        4PY         0.01040   0.00169  -0.00199  -0.00218   0.01596
 262        4PZ         0.00005   0.00002  -0.00016  -0.00003   0.00002
 263        5XX         0.00004  -0.00000  -0.00001   0.00010  -0.00007
 264        5YY         0.00004   0.00000   0.00007   0.00004  -0.00011
 265        5ZZ         0.00003   0.00001  -0.00005  -0.00007  -0.00007
 266        5XY         0.00005   0.00000  -0.00001  -0.00005  -0.00000
 267        5XZ        -0.00000  -0.00000  -0.00000   0.00000   0.00000
 268        5YZ        -0.00000  -0.00000   0.00000  -0.00000  -0.00000
 269 16  H  1S          0.00002  -0.00001  -0.00000   0.00002   0.00001
 270        2S          0.00001  -0.00014  -0.00004   0.00033  -0.00016
 271 17  H  1S          0.00000   0.00002  -0.00000   0.00006  -0.00001
 272        2S         -0.00010   0.00025  -0.00001  -0.00023   0.00057
 273 18  H  1S          0.00003   0.00000  -0.00001  -0.00002   0.00004
 274        2S          0.00011  -0.00010  -0.00000   0.00080  -0.00002
 275 19  H  1S         -0.00001   0.00001  -0.00000   0.00002   0.00001
 276        2S         -0.00006   0.00007   0.00001  -0.00026   0.00031
 277 20  H  1S         -0.00000  -0.00001  -0.00000   0.00000   0.00001
 278        2S          0.00002  -0.00014  -0.00012   0.00020  -0.00012
 279 21  H  1S         -0.00002   0.00001   0.00004  -0.00004   0.00000
 280        2S          0.00028   0.00011   0.00042  -0.00042   0.00029
 281 22  O  1S          0.99253   0.00006   0.00001   0.00010  -0.00003
 282        2S          0.02504   0.00001   0.00005   0.00132  -0.00015
 283        2PX        -0.00010  -0.00000   0.00003   0.00001   0.00001
 284        2PY         0.00120   0.00000   0.00000   0.00003  -0.00001
 285        2PZ        -0.00000   0.00000  -0.00000  -0.00000  -0.00000
 286        3S          0.01660  -0.00003  -0.00015  -0.00851   0.00155
 287        3PX         0.00019   0.00001  -0.00018   0.00029  -0.00006
 288        3PY        -0.00044  -0.00004   0.00001  -0.00307   0.00050
 289        3PZ        -0.00000  -0.00000   0.00000   0.00001  -0.00000
 290        4S         -0.00982  -0.00014   0.00111   0.00740   0.00213
 291        4PX        -0.00139  -0.00014   0.00050  -0.00033   0.00044
[...]
  22         O                -0.865148          1.571669
  23         O                -0.807776          1.593585
  24         O                -0.773511          1.686828
  25         O                -0.767576          1.656195
  26         O                -0.756039          1.729915
  27         O                -0.684860          1.780363
  28         O                -0.665019          1.517394
  29         O                -0.645901          1.484150
  30         O                -0.614127          1.593391
  31         O                -0.585425          1.530337
  32         O                -0.574065          1.529217
  33         O                -0.554658          1.236248
  34         O                -0.529925          1.436560
  35         O                -0.506605          1.711272
  36         O                -0.497177          1.649570
  37         O                -0.482135          1.395783
  38         O                -0.474179          1.450796
  39         O                -0.466765          1.496345
  40         O                -0.448054          1.115492
  41         O                -0.446532          1.302492
  42         O                -0.442554          2.152406
  43         O                -0.435969          1.702143
  44         O                -0.426211          1.818411
  45         O                -0.409349          1.436110
  46         O                -0.397736          1.205362
  47         O                -0.394617          1.458383
  48         O                -0.386456          1.516435
  49         O                -0.371756          1.637254
  50         O                -0.366862          1.311951
  51         O                -0.362796          1.602776
  52         O                -0.331530          1.321389
  53         O                -0.282851          1.470289
  54         O                -0.276557          2.336633
  55         O                -0.272138          1.158485
  56         O                -0.271947          1.222629
  57         O                -0.264226          2.323967
  58         O                -0.225018          1.463168
  59         V                -0.109580          1.673070
  60         V                -0.060809          1.420529
  61         V                -0.031572          1.323378
  62         V                -0.011503          1.390214
  63         V                -0.004791          0.369624
  64         V                 0.006370          0.324428
  65         V                 0.013603          0.361713
  66         V                 0.024214          0.291487
  67         V                 0.027250          0.276766
  68         V                 0.037617          1.258179
  69         V                 0.044151          0.307309
  70         V                 0.046059          0.714476
  71         V                 0.049509          0.299976
  72         V                 0.050238          1.247455
  73         V                 0.050600          0.335823
  74         V                 0.065136          0.335800
  75         V                 0.066991          0.300830
  76         V                 0.070279          0.343995
  77         V                 0.075605          0.357156
  78         V                 0.079750          0.341531
  79         V                 0.091892          0.345665
  80         V                 0.098104          0.291824
  81         V                 0.098695          0.402612
  82         V                 0.108866          0.381512
  83         V                 0.116061          0.380966
  84         V                 0.120152          0.326215
  85         V                 0.121664          0.939732
  86         V                 0.127351          0.435948
  87         V                 0.131654          0.345600
  88         V                 0.136654          0.431009
  89         V                 0.140213          0.631229
  90         V                 0.145444          0.727799
  91         V                 0.152990          0.478299
  92         V                 0.161387          1.043720
  93         V                 0.163324          0.522771
  94         V                 0.169471          0.739443
  95         V                 0.170611          0.442602
  96         V                 0.174824          0.826608
  97         V                 0.178577          0.874203
  98         V                 0.180443          0.834156
  99         V                 0.183741          0.650511
 100         V                 0.186436          0.456172
 101         V                 0.193662          0.984322
 102         V                 0.197015          0.377803
 103         V                 0.197936          0.629572
 104         V                 0.198116          1.306551
 105         V                 0.204154          0.801713
 106         V                 0.208435          0.748088
 107         V                 0.212862          0.656135
 108         V                 0.217450          0.920087
 109         V                 0.224639          1.258855
 110         V                 0.225778          1.534164
 111         V                 0.230340          0.600228
 112         V                 0.234835          0.513825
 113         V                 0.236105          1.065209
 114         V                 0.240039          0.798154
 115         V                 0.241822          1.102706
 116         V                 0.252129          1.187435
 117         V                 0.255221          0.509094
 118         V                 0.260815          1.056122
 119         V                 0.264783          1.136052
 120         V                 0.268566          0.889704
 121         V                 0.271514          0.928055
 122         V                 0.276320          1.055514
 123         V                 0.282512          1.251888
 124         V                 0.286748          1.057562
 125         V                 0.289069          0.950327
 126         V                 0.292473          1.052562
 127         V                 0.297700          1.252875
 128         V                 0.300164          1.368765
 129         V                 0.305202          1.241161
 130         V                 0.307426          0.782591
 131         V                 0.321340          1.057051
 132         V                 0.326805          0.740144
 133         V                 0.327286          1.106235
 134         V                 0.327794          0.959677
 135         V                 0.331058          1.153599
 136         V                 0.344325          0.887175
 137         V                 0.348102          1.494649
 138         V                 0.360967          1.141254
 139         V                 0.365355          1.523491
 140         V                 0.378744          1.311960
 141         V                 0.385908          1.330750
 142         V                 0.390895          1.244033
 143         V                 0.394094          1.733593
 144         V                 0.407692          1.378188
 145         V                 0.414767          1.496927
 146         V                 0.415550          1.373042
 147         V                 0.440532          1.700944
 148         V                 0.442827          1.693596
 149         V                 0.480126          1.841519
 150         V                 0.489651          2.312614
 151         V                 0.496123          2.222895
 152         V                 0.528805          2.353819
 153         V                 0.538222          1.748272
 154         V                 0.594881          2.498902
 155         V                 0.606495          3.021741
 156         V                 0.639398          2.839330
 157         V                 0.658366          2.134304
 158         V                 0.669036          2.193151
 159         V                 0.669353          2.732103
 160         V                 0.672046          2.169331
 161         V                 0.688898          2.294460
 162         V                 0.690395          2.392318
 163         V                 0.694404          2.169053
 164         V                 0.699112          2.295084
 165         V                 0.713813          2.573399
 166         V                 0.719055          2.203008
 167         V                 0.727120          2.219694
 168         V                 0.730102          2.213233
 169         V                 0.734262          2.220077
 170         V                 0.735454          2.725810
 171         V                 0.749469          2.643497
 172         V                 0.763436          2.218756
 173         V                 0.768187          2.456698
 174         V                 0.773875          2.243315
 175         V                 0.779825          2.265443
 176         V                 0.792078          2.321206
 177         V                 0.795493          2.419980
 178         V                 0.808082          2.265414
 179         V                 0.815747          2.518469
 180         V                 0.845083          2.231756
 181         V                 0.847832          2.345724
 182         V                 0.854590          2.672606
 183         V                 0.893075          2.674759
 184         V                 0.897760          2.623825
 185         V                 0.911972          2.228159
 186         V                 0.922992          2.447789
 187         V                 0.925971          2.372239
 188         V                 0.933924          2.436571
 189         V                 0.948130          2.435166
 190         V                 0.952217          2.449192
 191         V                 0.958455          2.724692
 192         V                 1.007863          2.519723
 193         V                 1.018667          2.422285
 194         V                 1.034502          2.455480
 195         V                 1.052132          2.605363
 196         V                 1.065865          2.443837
 197         V                 1.068521          2.366040
 198         V                 1.084153          2.363405
 199         V                 1.105672          2.420498
 200         V                 1.122152          2.295790
 201         V                 1.128498          2.338499
 202         V                 1.146418          2.313567
 203         V                 1.151432          2.334280
 204         V                 1.165932          2.425356
 205         V                 1.180151          2.351599
 206         V                 1.191845          2.356880
 207         V                 1.197582          2.452599
 208         V                 1.207660          2.512736
 209         V                 1.219233          2.432732
 210         V                 1.221573          2.417324
 211         V                 1.232688          2.456591
 212         V                 1.237732          2.420292
 213         V                 1.238567          2.419920
 214         V                 1.246523          3.625499
 215         V                 1.257306          2.590460
 216         V                 1.269860          3.614257
 217         V                 1.272887          2.509739
 218         V                 1.305400          2.646064
 219         V                 1.323080          2.546621
 220         V                 1.336613          2.975751
 221         V                 1.346509          2.919737
 222         V                 1.351769          2.938398
 223         V                 1.357927          2.583602
 224         V                 1.372903          2.620986
 225         V                 1.386266          2.931090
 226         V                 1.398173          2.603282
 227         V                 1.408311          2.594399
 228         V                 1.432653          2.604199
 229         V                 1.445519          2.936796
 230         V                 1.451531          2.704285
 231         V                 1.455179          2.920003
 232         V                 1.461954          3.010087
 233         V                 1.463580          2.663639
 234         V                 1.469246          2.664799
 235         V                 1.480963          2.682427
 236         V                 1.486024          3.170412
 237         V                 1.503045          2.823886
 238         V                 1.531448          2.983599
 239         V                 1.592636          2.836662
 240         V                 1.611538          2.837979
 241         V                 1.630153          3.050297
 242         V                 1.667581          3.157447
 243         V                 1.687561          3.136350
 244         V                 1.705703          3.010344
 245         V                 1.709701          3.037375
 246         V                 1.720085          2.907503
 247         V                 1.742532          2.928119
 248         V                 1.751784          2.804715
 249         V                 1.796363          3.267743
 250         V                 1.797586          3.025253
 251         V                 1.811701          3.321584
 252         V                 1.833951          3.412846
 253         V                 1.850091          3.387491
 254         V                 1.859899          3.305155
 255         V                 1.878037          3.166294
 256         V                 1.879435          3.099752
 257         V                 1.918643          3.247764
 258         V                 1.938316          3.381199
 259         V                 1.947444          3.453072
 260         V                 1.959735          3.419009
 261         V                 1.960477          3.187741
 262         V                 2.000388          3.379461
 263         V                 2.007637          3.433628
 264         V                 2.030008          3.585999
 265         V                 2.036576          3.516971
 266         V                 2.053293          3.489963
 267         V                 2.065799          3.649194
 268         V                 2.075557          3.650135
 269         V                 2.100941          3.312231
 270         V                 2.138152          3.619636
 271         V                 2.153654          3.389194
 272         V                 2.171214          3.616749
 273         V                 2.178947          3.615236
 274         V                 2.195648          3.416597
 275         V                 2.200165          3.598414
 276         V                 2.214907          3.658874
 277         V                 2.232084          3.486227
 278         V                 2.254874          3.522287
 279         V                 2.268652          3.541684
 280         V                 2.279162          3.533038
 281         V                 2.282954          3.554123
 282         V                 2.288759          3.555660
 283         V                 2.290115          3.620701
 284         V                 2.328380          3.670658
 285         V                 2.364460          3.857035
 286         V                 2.406298          3.688768
 287         V                 2.430492          3.841205
 288         V                 2.453215          3.807355
 289         V                 2.474542          4.274452
 290         V                 2.502403          4.302826
 291         V                 2.524770          3.816802
 292         V                 2.551136          4.054107
 293         V                 2.554285          3.836878
 294         V                 2.582090          4.132550
 295         V                 2.594926          3.855573
 296         V                 2.607173          4.213721
 297         V                 2.640201          3.953547
 298         V                 2.683145          4.271431
 299         V                 2.700147          4.436927
 300         V                 2.710763          4.012036
 301         V                 2.716229          4.260295
 302         V                 2.731883          4.293815
 303         V                 2.764197          4.441639
 304         V                 2.766094          4.487274
 305         V                 2.799913          4.376780
 306         V                 2.829933          4.507717
 307         V                 2.857091          4.501388
 308         V                 2.870169          4.677301
 309         V                 2.899610          4.669370
 310         V                 2.942961          4.755875
 311         V                 3.006257          4.758553
 312         V                 3.058813          4.696826
 313         V                 3.110817          4.920216
 314         V                 3.180145          5.005419
 315         V                 3.231319          5.314861
 316         V                 3.247180          5.309494
 317         V                 3.351282          5.371397
 318         V                 3.424870          5.364344
 319         V                 3.489541          5.307184
 320         V                 4.070916         10.641561
 321         V                 4.224711         10.481594
 322         V                 4.237908         10.534819
 323         V                 4.250574         10.522720
 324         V                 4.290440         10.416293
 325         V                 4.306959         10.561331
 326         V                 4.323202         10.607021
 327         V                 4.329548         10.546835
 328         V                 4.353727         10.680075
 329         V                 4.416774         10.348609
 330         V                 4.430164         10.460509
 331         V                 4.463876         10.472575
 332         V                 4.468548         10.438737
 333         V                 4.682545         10.508989
 334         V                 4.738046         11.501336
 335         V                 4.818505         11.513001
 336         V                 5.098438         12.661818
 Total kinetic energy from orbitals= 7.372320798062D+02
 Leave Link  601 at Mon May 31 16:15:31 2021, MaxMem=    33554432 cpu:         1.2
 (Enter /opt/app/gaussian09/e01/g09/l9999.exe)
 1\1\GINC-NB-0054\SP\RB3LYP TD-FC\6-31+G(d)\C14H9N1O2\ROOT\31-May-2021\
 0\\#p td(NStates=10) b3lyp/6-31+g(d) nosymm pop=full\\1_amino_anthraqu
 inone td\\0,1\C,0,-3.96468682,0.32612328,-0.00032956\C,0,-2.8767583,1.
 19396566,-0.00207097\C,0,-1.57255298,0.68505004,-0.00136925\C,0,-1.360
 96227,-0.70504746,0.00102796\C,0,-2.4612045,-1.57117241,0.00292573\C,0
 ,-3.75553445,-1.0583258,0.00226186\C,0,-0.42216452,1.62766162,-0.00213
 764\C,0,0.01535915,-1.28449723,0.00090905\C,0,1.1587398,-0.36392821,-0
 .00301962\C,0,0.95406733,1.0432231,-0.00108954\C,0,2.02397331,1.928612
 71,0.00296036\H,0,1.81998696,2.99296711,0.00423913\C,0,3.33298529,1.42
 838997,0.00628202\C,0,3.56868051,0.06712435,0.00335493\C,0,2.49868497,
 -0.86366277,-0.00336067\H,0,-4.97602473,0.72338417,-0.00090405\H,0,-3.
 00823001,2.27100337,-0.00382289\H,0,-2.27580508,-2.63984436,0.00471916
 \H,0,-4.60526331,-1.73565264,0.00366621\H,0,4.17479964,2.11574739,0.01
 08943\H,0,4.58749596,-0.31368978,0.00435697\O,0,0.14674496,-2.51940998
 ,0.00522314\O,0,-0.59880874,2.84207077,-0.00303796\N,0,2.76641369,-2.1
 9378188,-0.01681704\H,0,3.71840599,-2.52079598,0.02926459\H,0,1.984489
 71,-2.83903366,0.00975658\\Version=ES64L-G09RevE.01\HF=-744.1683728\RM
 SD=6.011e-09\PG=C01 [X(C14H9N1O2)]\\@


 In the beginning there was nothing, which exploded.
 Job cpu time:       0 days  0 hours 53 minutes 59.5 seconds.
 File lengths (MBytes):  RWF=    297 Int=      0 D2E=      0 Chk=     44 Scr=      1
 Normal termination of Gaussian 09 at Mon May 31 16:15:32 2021.
