1_amino_anthraquinone td                                                
SP        RB3LYP TD-FC                                                6-31+G(d)           
Number of atoms                            I               26
Info1-9                                    I   N=           9
          60          33           0           0           0         110
           1         218        -501
Charge                                     I                0
Multiplicity                               I                1
Number of electrons                        I              116
Number of alpha electrons                  I               58
Number of beta electrons                   I               58
Number of basis functions                  I              341
Number of independent functions            I              336
Number of point charges in /Mol/           I                0
Number of translation vectors              I                0
Atomic numbers                             I   N=          26
           6           6           6           6           6           6
           6           6           6           6           6           1
           6           6           6           1           1           1
           1           1           1           8           8           7
           1           1
Nuclear charges                            R   N=          26
  6.00000000E+00  6.00000000E+00  6.00000000E+00  6.00000000E+00  6.00000000E+00
  6.00000000E+00  6.00000000E+00  6.00000000E+00  6.00000000E+00  6.00000000E+00
  6.00000000E+00  1.00000000E+00  6.00000000E+00  6.00000000E+00  6.00000000E+00
  1.00000000E+00  1.00000000E+00  1.00000000E+00  1.00000000E+00  1.00000000E+00
  1.00000000E+00  8.00000000E+00  8.00000000E+00  7.00000000E+00  1.00000000E+00
  1.00000000E+00
Current cartesian coordinates              R   N=          78
 -7.49217229E+00  6.16283685E-01 -6.22778144E-04 -5.43628534E+00  2.25626811E+00
 -3.91356613E-03 -2.97169446E+00  1.29455696E+00 -2.58750751E-03 -2.57184597E+00
 -1.33234661E+00  1.94256288E-03 -4.65100246E+00 -2.96908556E+00  5.52882844E-03
 -7.09693159E+00 -1.99994592E+00  4.27429595E-03 -7.97775326E-01  3.07583470E+00
 -4.03955417E-03  2.90245871E-02 -2.42734798E+00  1.71785554E-03  2.18970088E+00
 -6.87724649E-01 -5.70625483E-03  1.80292597E+00  1.97140595E+00 -2.05893221E-03
  3.82475526E+00  3.64454984E+00  5.59426965E-03  3.43927692E+00  5.65588816E+00
  8.01079474E-03  6.29842940E+00  2.69926585E+00  1.18712974E-02  6.74382882E+00
  1.26846638E-01  6.33989890E-03  4.72183029E+00 -1.63208611E+00 -6.35074592E-03
 -9.40332397E+00  1.36699797E+00 -1.70840691E-03 -5.68473086E+00  4.29157442E+00
 -7.22421514E-03 -4.30064833E+00 -4.98858287E+00  8.91791998E-03 -8.70268643E+00
 -3.27990815E+00  6.92813285E-03  7.88922798E+00  3.99818313E+00  2.05872434E-02
  8.66911100E+00 -5.92787775E-01  8.23348007E-03  2.77307786E-01 -4.76099488E+00
  9.87030415E-03 -1.13158452E+00  5.37073541E+00 -5.74091240E-03  5.22776424E+00
 -4.14564695E+00 -3.17796000E-02  7.02676897E+00 -4.76361404E+00  5.53020605E-02
  3.75014207E+00 -5.36499610E+00  1.84372642E-02
Force Field                                I                0
Int Atom Types                             I   N=          26
           0           0           0           0           0           0
           0           0           0           0           0           0
           0           0           0           0           0           0
           0           0           0           0           0           0
           0           0
MM charges                                 R   N=          26
  0.00000000E+00  0.00000000E+00  0.00000000E+00  0.00000000E+00  0.00000000E+00
  0.00000000E+00  0.00000000E+00  0.00000000E+00  0.00000000E+00  0.00000000E+00
  0.00000000E+00  0.00000000E+00  0.00000000E+00  0.00000000E+00  0.00000000E+00
  0.00000000E+00  0.00000000E+00  0.00000000E+00  0.00000000E+00  0.00000000E+00
  0.00000000E+00  0.00000000E+00  0.00000000E+00  0.00000000E+00  0.00000000E+00
  0.00000000E+00
Integer atomic weights                     I   N=          26
          12          12          12          12          12          12
          12          12          12          12          12           1
          12          12          12           1           1           1
           1           1           1          16          16          14
           1           1
Real atomic weights                        R   N=          26
  1.20000000E+01  1.20000000E+01  1.20000000E+01  1.20000000E+01  1.20000000E+01
  1.20000000E+01  1.20000000E+01  1.20000000E+01  1.20000000E+01  1.20000000E+01
  1.20000000E+01  1.00782504E+00  1.20000000E+01  1.20000000E+01  1.20000000E+01
  1.00782504E+00  1.00782504E+00  1.00782504E+00  1.00782504E+00  1.00782504E+00
  1.00782504E+00  1.59949146E+01  1.59949146E+01  1.40030740E+01  1.00782504E+00
  1.00782504E+00
Atom fragment info                         I   N=          26
           0           0           0           0           0           0
           0           0           0           0           0           0
           0           0           0           0           0           0
           0           0           0           0           0           0
           0           0
Atom residue num                           I   N=          26
           0           0           0           0           0           0
           0           0           0           0           0           0
           0           0           0           0           0           0
           0           0           0           0           0           0
           0           0
Nuclear spins                              I   N=          26
           0           0           0           0           0           0
           0           0           0           0           0           1
           0           0           0           1           1           1
           1           1           1           0           0           2
           1           1
Nuclear ZEff                               R   N=          26
 -3.60000000E+00 -3.60000000E+00 -3.60000000E+00 -3.60000000E+00 -3.60000000E+00
 -3.60000000E+00 -3.60000000E+00 -3.60000000E+00 -3.60000000E+00 -3.60000000E+00
 -3.60000000E+00 -1.00000000E+00 -3.60000000E+00 -3.60000000E+00 -3.60000000E+00
 -1.00000000E+00 -1.00000000E+00 -1.00000000E+00 -1.00000000E+00 -1.00000000E+00
 -1.00000000E+00 -5.60000000E+00 -5.60000000E+00 -4.55000000E+00 -1.00000000E+00
 -1.00000000E+00
Nuclear ZNuc                               R   N=          26
  6.00000000E+00  6.00000000E+00  6.00000000E+00  6.00000000E+00  6.00000000E+00
  6.00000000E+00  6.00000000E+00  6.00000000E+00  6.00000000E+00  6.00000000E+00
  6.00000000E+00  1.00000000E+00  6.00000000E+00  6.00000000E+00  6.00000000E+00
  1.00000000E+00  1.00000000E+00  1.00000000E+00  1.00000000E+00  1.00000000E+00
  1.00000000E+00  8.00000000E+00  8.00000000E+00  7.00000000E+00  1.00000000E+00
  1.00000000E+00
Nuclear QMom                               R   N=          26
  0.00000000E+00  0.00000000E+00  0.00000000E+00  0.00000000E+00  0.00000000E+00
  0.00000000E+00  0.00000000E+00  0.00000000E+00  0.00000000E+00  0.00000000E+00
  0.00000000E+00  0.00000000E+00  0.00000000E+00  0.00000000E+00  0.00000000E+00
  0.00000000E+00  0.00000000E+00  0.00000000E+00  0.00000000E+00  0.00000000E+00
  0.00000000E+00  0.00000000E+00  0.00000000E+00  2.04400000E+00  0.00000000E+00
  0.00000000E+00
Nuclear GFac                               R   N=          26
  0.00000000E+00  0.00000000E+00  0.00000000E+00  0.00000000E+00  0.00000000E+00
  0.00000000E+00  0.00000000E+00  0.00000000E+00  0.00000000E+00  0.00000000E+00
  0.00000000E+00  2.79284600E+00  0.00000000E+00  0.00000000E+00  0.00000000E+00
  2.79284600E+00  2.79284600E+00  2.79284600E+00  2.79284600E+00  2.79284600E+00
  2.79284600E+00  0.00000000E+00  0.00000000E+00  4.03761000E-01  2.79284600E+00
  2.79284600E+00
MicOpt                                     I   N=          26
          -1          -1          -1          -1          -1          -1
          -1          -1          -1          -1          -1          -1
          -1          -1          -1          -1          -1          -1
          -1          -1          -1          -1          -1          -1
          -1          -1
Number of contracted shells                I              103
Number of primitive shells                 I              240
Pure/Cartesian d shells                    I                1
Pure/Cartesian f shells                    I                0
Highest angular momentum                   I                2
Largest degree of contraction              I                6
Shell types                                I   N=         103
           0          -1          -1          -1           2           0
          -1          -1          -1           2           0          -1
          -1          -1           2           0          -1          -1
          -1           2           0          -1          -1          -1
           2           0          -1          -1          -1           2
           0          -1          -1          -1           2           0
          -1          -1          -1           2           0          -1
          -1          -1           2           0          -1          -1
          -1           2           0          -1          -1          -1
           2           0           0           0          -1          -1
          -1           2           0          -1          -1          -1
           2           0          -1          -1          -1           2
           0           0           0           0           0           0
           0           0           0           0           0           0
           0          -1          -1          -1           2           0
          -1          -1          -1           2           0          -1
          -1          -1           2           0           0           0
           0
Number of primitives per shell             I   N=         103
           6           3           1           1           1           6
           3           1           1           1           6           3
           1           1           1           6           3           1
           1           1           6           3           1           1
           1           6           3           1           1           1
           6           3           1           1           1           6
           3           1           1           1           6           3
           1           1           1           6           3           1
           1           1           6           3           1           1
           1           3           1           6           3           1
           1           1           6           3           1           1
           1           6           3           1           1           1
           3           1           3           1           3           1
           3           1           3           1           3           1
           6           3           1           1           1           6
           3           1           1           1           6           3
           1           1           1           3           1           3
           1
Shell to atom map                          I   N=         103
           1           1           1           1           1           2
           2           2           2           2           3           3
           3           3           3           4           4           4
           4           4           5           5           5           5
           5           6           6           6           6           6
           7           7           7           7           7           8
           8           8           8           8           9           9
           9           9           9          10          10          10
          10          10          11          11          11          11
          11          12          12          13          13          13
          13          13          14          14          14          14
          14          15          15          15          15          15
          16          16          17          17          18          18
          19          19          20          20          21          21
          22          22          22          22          22          23
          23          23          23          23          24          24
          24          24          24          25          25          26
          26
Primitive exponents                        R   N=         240
  3.04752488E+03  4.57369518E+02  1.03948685E+02  2.92101553E+01  9.28666296E+00
  3.16392696E+00  7.86827235E+00  1.88128854E+00  5.44249258E-01  1.68714478E-01
  4.38000000E-02  8.00000000E-01  3.04752488E+03  4.57369518E+02  1.03948685E+02
  2.92101553E+01  9.28666296E+00  3.16392696E+00  7.86827235E+00  1.88128854E+00
  5.44249258E-01  1.68714478E-01  4.38000000E-02  8.00000000E-01  3.04752488E+03
  4.57369518E+02  1.03948685E+02  2.92101553E+01  9.28666296E+00  3.16392696E+00
  7.86827235E+00  1.88128854E+00  5.44249258E-01  1.68714478E-01  4.38000000E-02
  8.00000000E-01  3.04752488E+03  4.57369518E+02  1.03948685E+02  2.92101553E+01
  9.28666296E+00  3.16392696E+00  7.86827235E+00  1.88128854E+00  5.44249258E-01
  1.68714478E-01  4.38000000E-02  8.00000000E-01  3.04752488E+03  4.57369518E+02
  1.03948685E+02  2.92101553E+01  9.28666296E+00  3.16392696E+00  7.86827235E+00
  1.88128854E+00  5.44249258E-01  1.68714478E-01  4.38000000E-02  8.00000000E-01
  3.04752488E+03  4.57369518E+02  1.03948685E+02  2.92101553E+01  9.28666296E+00
  3.16392696E+00  7.86827235E+00  1.88128854E+00  5.44249258E-01  1.68714478E-01
  4.38000000E-02  8.00000000E-01  3.04752488E+03  4.57369518E+02  1.03948685E+02
  2.92101553E+01  9.28666296E+00  3.16392696E+00  7.86827235E+00  1.88128854E+00
  5.44249258E-01  1.68714478E-01  4.38000000E-02  8.00000000E-01  3.04752488E+03
  4.57369518E+02  1.03948685E+02  2.92101553E+01  9.28666296E+00  3.16392696E+00
  7.86827235E+00  1.88128854E+00  5.44249258E-01  1.68714478E-01  4.38000000E-02
  8.00000000E-01  3.04752488E+03  4.57369518E+02  1.03948685E+02  2.92101553E+01
  9.28666296E+00  3.16392696E+00  7.86827235E+00  1.88128854E+00  5.44249258E-01
  1.68714478E-01  4.38000000E-02  8.00000000E-01  3.04752488E+03  4.57369518E+02
  1.03948685E+02  2.92101553E+01  9.28666296E+00  3.16392696E+00  7.86827235E+00
  1.88128854E+00  5.44249258E-01  1.68714478E-01  4.38000000E-02  8.00000000E-01
  3.04752488E+03  4.57369518E+02  1.03948685E+02  2.92101553E+01  9.28666296E+00
  3.16392696E+00  7.86827235E+00  1.88128854E+00  5.44249258E-01  1.68714478E-01
  4.38000000E-02  8.00000000E-01  1.87311370E+01  2.82539436E+00  6.40121692E-01
  1.61277759E-01  3.04752488E+03  4.57369518E+02  1.03948685E+02  2.92101553E+01
  9.28666296E+00  3.16392696E+00  7.86827235E+00  1.88128854E+00  5.44249258E-01
  1.68714478E-01  4.38000000E-02  8.00000000E-01  3.04752488E+03  4.57369518E+02
  1.03948685E+02  2.92101553E+01  9.28666296E+00  3.16392696E+00  7.86827235E+00
  1.88128854E+00  5.44249258E-01  1.68714478E-01  4.38000000E-02  8.00000000E-01
  3.04752488E+03  4.57369518E+02  1.03948685E+02  2.92101553E+01  9.28666296E+00
  3.16392696E+00  7.86827235E+00  1.88128854E+00  5.44249258E-01  1.68714478E-01
  4.38000000E-02  8.00000000E-01  1.87311370E+01  2.82539436E+00  6.40121692E-01
  1.61277759E-01  1.87311370E+01  2.82539436E+00  6.40121692E-01  1.61277759E-01
  1.87311370E+01  2.82539436E+00  6.40121692E-01  1.61277759E-01  1.87311370E+01
  2.82539436E+00  6.40121692E-01  1.61277759E-01  1.87311370E+01  2.82539436E+00
  6.40121692E-01  1.61277759E-01  1.87311370E+01  2.82539436E+00  6.40121692E-01
  1.61277759E-01  5.48467166E+03  8.25234946E+02  1.88046958E+02  5.29645000E+01
  1.68975704E+01  5.79963534E+00  1.55396162E+01  3.59993359E+00  1.01376175E+00
  2.70005823E-01  8.45000000E-02  8.00000000E-01  5.48467166E+03  8.25234946E+02
  1.88046958E+02  5.29645000E+01  1.68975704E+01  5.79963534E+00  1.55396162E+01
  3.59993359E+00  1.01376175E+00  2.70005823E-01  8.45000000E-02  8.00000000E-01
  4.17351146E+03  6.27457911E+02  1.42902093E+02  4.02343293E+01  1.28202129E+01
  4.39043701E+00  1.16263619E+01  2.71627981E+00  7.72218397E-01  2.12031498E-01
  6.39000000E-02  8.00000000E-01  1.87311370E+01  2.82539436E+00  6.40121692E-01
  1.61277759E-01  1.87311370E+01  2.82539436E+00  6.40121692E-01  1.61277759E-01
Contraction coefficients                   R   N=         240
  1.83473713E-03  1.40373228E-02  6.88426223E-02  2.32184443E-01  4.67941348E-01
  3.62311985E-01 -1.19332420E-01 -1.60854152E-01  1.14345644E+00  1.00000000E+00
  1.00000000E+00  1.00000000E+00  1.83473713E-03  1.40373228E-02  6.88426223E-02
  2.32184443E-01  4.67941348E-01  3.62311985E-01 -1.19332420E-01 -1.60854152E-01
  1.14345644E+00  1.00000000E+00  1.00000000E+00  1.00000000E+00  1.83473713E-03
  1.40373228E-02  6.88426223E-02  2.32184443E-01  4.67941348E-01  3.62311985E-01
 -1.19332420E-01 -1.60854152E-01  1.14345644E+00  1.00000000E+00  1.00000000E+00
  1.00000000E+00  1.83473713E-03  1.40373228E-02  6.88426223E-02  2.32184443E-01
  4.67941348E-01  3.62311985E-01 -1.19332420E-01 -1.60854152E-01  1.14345644E+00
  1.00000000E+00  1.00000000E+00  1.00000000E+00  1.83473713E-03  1.40373228E-02
  6.88426223E-02  2.32184443E-01  4.67941348E-01  3.62311985E-01 -1.19332420E-01
 -1.60854152E-01  1.14345644E+00  1.00000000E+00  1.00000000E+00  1.00000000E+00
  1.83473713E-03  1.40373228E-02  6.88426223E-02  2.32184443E-01  4.67941348E-01
  3.62311985E-01 -1.19332420E-01 -1.60854152E-01  1.14345644E+00  1.00000000E+00
  1.00000000E+00  1.00000000E+00  1.83473713E-03  1.40373228E-02  6.88426223E-02
  2.32184443E-01  4.67941348E-01  3.62311985E-01 -1.19332420E-01 -1.60854152E-01
  1.14345644E+00  1.00000000E+00  1.00000000E+00  1.00000000E+00  1.83473713E-03
  1.40373228E-02  6.88426223E-02  2.32184443E-01  4.67941348E-01  3.62311985E-01
 -1.19332420E-01 -1.60854152E-01  1.14345644E+00  1.00000000E+00  1.00000000E+00
  1.00000000E+00  1.83473713E-03  1.40373228E-02  6.88426223E-02  2.32184443E-01
  4.67941348E-01  3.62311985E-01 -1.19332420E-01 -1.60854152E-01  1.14345644E+00
  1.00000000E+00  1.00000000E+00  1.00000000E+00  1.83473713E-03  1.40373228E-02
  6.88426223E-02  2.32184443E-01  4.67941348E-01  3.62311985E-01 -1.19332420E-01
 -1.60854152E-01  1.14345644E+00  1.00000000E+00  1.00000000E+00  1.00000000E+00
  1.83473713E-03  1.40373228E-02  6.88426223E-02  2.32184443E-01  4.67941348E-01
  3.62311985E-01 -1.19332420E-01 -1.60854152E-01  1.14345644E+00  1.00000000E+00
  1.00000000E+00  1.00000000E+00  3.34946043E-02  2.34726953E-01  8.13757326E-01
  1.00000000E+00  1.83473713E-03  1.40373228E-02  6.88426223E-02  2.32184443E-01
  4.67941348E-01  3.62311985E-01 -1.19332420E-01 -1.60854152E-01  1.14345644E+00
  1.00000000E+00  1.00000000E+00  1.00000000E+00  1.83473713E-03  1.40373228E-02
  6.88426223E-02  2.32184443E-01  4.67941348E-01  3.62311985E-01 -1.19332420E-01
 -1.60854152E-01  1.14345644E+00  1.00000000E+00  1.00000000E+00  1.00000000E+00
  1.83473713E-03  1.40373228E-02  6.88426223E-02  2.32184443E-01  4.67941348E-01
  3.62311985E-01 -1.19332420E-01 -1.60854152E-01  1.14345644E+00  1.00000000E+00
  1.00000000E+00  1.00000000E+00  3.34946043E-02  2.34726953E-01  8.13757326E-01
  1.00000000E+00  3.34946043E-02  2.34726953E-01  8.13757326E-01  1.00000000E+00
  3.34946043E-02  2.34726953E-01  8.13757326E-01  1.00000000E+00  3.34946043E-02
  2.34726953E-01  8.13757326E-01  1.00000000E+00  3.34946043E-02  2.34726953E-01
  8.13757326E-01  1.00000000E+00  3.34946043E-02  2.34726953E-01  8.13757326E-01
  1.00000000E+00  1.83107443E-03  1.39501722E-02  6.84450781E-02  2.32714336E-01
  4.70192898E-01  3.58520853E-01 -1.10777550E-01 -1.48026263E-01  1.13076702E+00
  1.00000000E+00  1.00000000E+00  1.00000000E+00  1.83107443E-03  1.39501722E-02
  6.84450781E-02  2.32714336E-01  4.70192898E-01  3.58520853E-01 -1.10777550E-01
 -1.48026263E-01  1.13076702E+00  1.00000000E+00  1.00000000E+00  1.00000000E+00
  1.83477216E-03  1.39946270E-02  6.85865518E-02  2.32240873E-01  4.69069948E-01
  3.60455199E-01 -1.14961182E-01 -1.69117479E-01  1.14585195E+00  1.00000000E+00
  1.00000000E+00  1.00000000E+00  3.34946043E-02  2.34726953E-01  8.13757326E-01
  1.00000000E+00  3.34946043E-02  2.34726953E-01  8.13757326E-01  1.00000000E+00
P(S=P) Contraction coefficients            R   N=         240
  0.00000000E+00  0.00000000E+00  0.00000000E+00  0.00000000E+00  0.00000000E+00
  0.00000000E+00  6.89990666E-02  3.16423961E-01  7.44308291E-01  1.00000000E+00
  1.00000000E+00  0.00000000E+00  0.00000000E+00  0.00000000E+00  0.00000000E+00
  0.00000000E+00  0.00000000E+00  0.00000000E+00  6.89990666E-02  3.16423961E-01
  7.44308291E-01  1.00000000E+00  1.00000000E+00  0.00000000E+00  0.00000000E+00
  0.00000000E+00  0.00000000E+00  0.00000000E+00  0.00000000E+00  0.00000000E+00
  6.89990666E-02  3.16423961E-01  7.44308291E-01  1.00000000E+00  1.00000000E+00
  0.00000000E+00  0.00000000E+00  0.00000000E+00  0.00000000E+00  0.00000000E+00
  0.00000000E+00  0.00000000E+00  6.89990666E-02  3.16423961E-01  7.44308291E-01
  1.00000000E+00  1.00000000E+00  0.00000000E+00  0.00000000E+00  0.00000000E+00
  0.00000000E+00  0.00000000E+00  0.00000000E+00  0.00000000E+00  6.89990666E-02
  3.16423961E-01  7.44308291E-01  1.00000000E+00  1.00000000E+00  0.00000000E+00
  0.00000000E+00  0.00000000E+00  0.00000000E+00  0.00000000E+00  0.00000000E+00
  0.00000000E+00  6.89990666E-02  3.16423961E-01  7.44308291E-01  1.00000000E+00
  1.00000000E+00  0.00000000E+00  0.00000000E+00  0.00000000E+00  0.00000000E+00
  0.00000000E+00  0.00000000E+00  0.00000000E+00  6.89990666E-02  3.16423961E-01
  7.44308291E-01  1.00000000E+00  1.00000000E+00  0.00000000E+00  0.00000000E+00
  0.00000000E+00  0.00000000E+00  0.00000000E+00  0.00000000E+00  0.00000000E+00
  6.89990666E-02  3.16423961E-01  7.44308291E-01  1.00000000E+00  1.00000000E+00
  0.00000000E+00  0.00000000E+00  0.00000000E+00  0.00000000E+00  0.00000000E+00
  0.00000000E+00  0.00000000E+00  6.89990666E-02  3.16423961E-01  7.44308291E-01
  1.00000000E+00  1.00000000E+00  0.00000000E+00  0.00000000E+00  0.00000000E+00
  0.00000000E+00  0.00000000E+00  0.00000000E+00  0.00000000E+00  6.89990666E-02
  3.16423961E-01  7.44308291E-01  1.00000000E+00  1.00000000E+00  0.00000000E+00
  0.00000000E+00  0.00000000E+00  0.00000000E+00  0.00000000E+00  0.00000000E+00
  0.00000000E+00  6.89990666E-02  3.16423961E-01  7.44308291E-01  1.00000000E+00
  1.00000000E+00  0.00000000E+00  0.00000000E+00  0.00000000E+00  0.00000000E+00
  0.00000000E+00  0.00000000E+00  0.00000000E+00  0.00000000E+00  0.00000000E+00
  0.00000000E+00  0.00000000E+00  6.89990666E-02  3.16423961E-01  7.44308291E-01
  1.00000000E+00  1.00000000E+00  0.00000000E+00  0.00000000E+00  0.00000000E+00
  0.00000000E+00  0.00000000E+00  0.00000000E+00  0.00000000E+00  6.89990666E-02
  3.16423961E-01  7.44308291E-01  1.00000000E+00  1.00000000E+00  0.00000000E+00
  0.00000000E+00  0.00000000E+00  0.00000000E+00  0.00000000E+00  0.00000000E+00
  0.00000000E+00  6.89990666E-02  3.16423961E-01  7.44308291E-01  1.00000000E+00
  1.00000000E+00  0.00000000E+00  0.00000000E+00  0.00000000E+00  0.00000000E+00
  0.00000000E+00  0.00000000E+00  0.00000000E+00  0.00000000E+00  0.00000000E+00
  0.00000000E+00  0.00000000E+00  0.00000000E+00  0.00000000E+00  0.00000000E+00
  0.00000000E+00  0.00000000E+00  0.00000000E+00  0.00000000E+00  0.00000000E+00
  0.00000000E+00  0.00000000E+00  0.00000000E+00  0.00000000E+00  0.00000000E+00
  0.00000000E+00  0.00000000E+00  0.00000000E+00  0.00000000E+00  0.00000000E+00
  0.00000000E+00  0.00000000E+00  7.08742682E-02  3.39752839E-01  7.27158577E-01
  1.00000000E+00  1.00000000E+00  0.00000000E+00  0.00000000E+00  0.00000000E+00
  0.00000000E+00  0.00000000E+00  0.00000000E+00  0.00000000E+00  7.08742682E-02
  3.39752839E-01  7.27158577E-01  1.00000000E+00  1.00000000E+00  0.00000000E+00
  0.00000000E+00  0.00000000E+00  0.00000000E+00  0.00000000E+00  0.00000000E+00
  0.00000000E+00  6.75797439E-02  3.23907296E-01  7.40895140E-01  1.00000000E+00
  1.00000000E+00  0.00000000E+00  0.00000000E+00  0.00000000E+00  0.00000000E+00
  0.00000000E+00  0.00000000E+00  0.00000000E+00  0.00000000E+00  0.00000000E+00
Coordinates of each shell                  R   N=         309
 -7.49217229E+00  6.16283685E-01 -6.22778144E-04 -7.49217229E+00  6.16283685E-01
 -6.22778144E-04 -7.49217229E+00  6.16283685E-01 -6.22778144E-04 -7.49217229E+00
  6.16283685E-01 -6.22778144E-04 -7.49217229E+00  6.16283685E-01 -6.22778144E-04
 -5.43628534E+00  2.25626811E+00 -3.91356613E-03 -5.43628534E+00  2.25626811E+00
 -3.91356613E-03 -5.43628534E+00  2.25626811E+00 -3.91356613E-03 -5.43628534E+00
  2.25626811E+00 -3.91356613E-03 -5.43628534E+00  2.25626811E+00 -3.91356613E-03
 -2.97169446E+00  1.29455696E+00 -2.58750751E-03 -2.97169446E+00  1.29455696E+00
 -2.58750751E-03 -2.97169446E+00  1.29455696E+00 -2.58750751E-03 -2.97169446E+00
  1.29455696E+00 -2.58750751E-03 -2.97169446E+00  1.29455696E+00 -2.58750751E-03
 -2.57184597E+00 -1.33234661E+00  1.94256288E-03 -2.57184597E+00 -1.33234661E+00
  1.94256288E-03 -2.57184597E+00 -1.33234661E+00  1.94256288E-03 -2.57184597E+00
 -1.33234661E+00  1.94256288E-03 -2.57184597E+00 -1.33234661E+00  1.94256288E-03
 -4.65100246E+00 -2.96908556E+00  5.52882844E-03 -4.65100246E+00 -2.96908556E+00
  5.52882844E-03 -4.65100246E+00 -2.96908556E+00  5.52882844E-03 -4.65100246E+00
 -2.96908556E+00  5.52882844E-03 -4.65100246E+00 -2.96908556E+00  5.52882844E-03
 -7.09693159E+00 -1.99994592E+00  4.27429595E-03 -7.09693159E+00 -1.99994592E+00
  4.27429595E-03 -7.09693159E+00 -1.99994592E+00  4.27429595E-03 -7.09693159E+00
 -1.99994592E+00  4.27429595E-03 -7.09693159E+00 -1.99994592E+00  4.27429595E-03
 -7.97775326E-01  3.07583470E+00 -4.03955417E-03 -7.97775326E-01  3.07583470E+00
 -4.03955417E-03 -7.97775326E-01  3.07583470E+00 -4.03955417E-03 -7.97775326E-01
  3.07583470E+00 -4.03955417E-03 -7.97775326E-01  3.07583470E+00 -4.03955417E-03
  2.90245871E-02 -2.42734798E+00  1.71785554E-03  2.90245871E-02 -2.42734798E+00
  1.71785554E-03  2.90245871E-02 -2.42734798E+00  1.71785554E-03  2.90245871E-02
 -2.42734798E+00  1.71785554E-03  2.90245871E-02 -2.42734798E+00  1.71785554E-03
  2.18970088E+00 -6.87724649E-01 -5.70625483E-03  2.18970088E+00 -6.87724649E-01
 -5.70625483E-03  2.18970088E+00 -6.87724649E-01 -5.70625483E-03  2.18970088E+00
 -6.87724649E-01 -5.70625483E-03  2.18970088E+00 -6.87724649E-01 -5.70625483E-03
  1.80292597E+00  1.97140595E+00 -2.05893221E-03  1.80292597E+00  1.97140595E+00
 -2.05893221E-03  1.80292597E+00  1.97140595E+00 -2.05893221E-03  1.80292597E+00
  1.97140595E+00 -2.05893221E-03  1.80292597E+00  1.97140595E+00 -2.05893221E-03
  3.82475526E+00  3.64454984E+00  5.59426965E-03  3.82475526E+00  3.64454984E+00
  5.59426965E-03  3.82475526E+00  3.64454984E+00  5.59426965E-03  3.82475526E+00
  3.64454984E+00  5.59426965E-03  3.82475526E+00  3.64454984E+00  5.59426965E-03
  3.43927692E+00  5.65588816E+00  8.01079474E-03  3.43927692E+00  5.65588816E+00
  8.01079474E-03  6.29842940E+00  2.69926585E+00  1.18712974E-02  6.29842940E+00
  2.69926585E+00  1.18712974E-02  6.29842940E+00  2.69926585E+00  1.18712974E-02
  6.29842940E+00  2.69926585E+00  1.18712974E-02  6.29842940E+00  2.69926585E+00
  1.18712974E-02  6.74382882E+00  1.26846638E-01  6.33989890E-03  6.74382882E+00
  1.26846638E-01  6.33989890E-03  6.74382882E+00  1.26846638E-01  6.33989890E-03
  6.74382882E+00  1.26846638E-01  6.33989890E-03  6.74382882E+00  1.26846638E-01
  6.33989890E-03  4.72183029E+00 -1.63208611E+00 -6.35074592E-03  4.72183029E+00
 -1.63208611E+00 -6.35074592E-03  4.72183029E+00 -1.63208611E+00 -6.35074592E-03
  4.72183029E+00 -1.63208611E+00 -6.35074592E-03  4.72183029E+00 -1.63208611E+00
 -6.35074592E-03 -9.40332397E+00  1.36699797E+00 -1.70840691E-03 -9.40332397E+00
  1.36699797E+00 -1.70840691E-03 -5.68473086E+00  4.29157442E+00 -7.22421514E-03
 -5.68473086E+00  4.29157442E+00 -7.22421514E-03 -4.30064833E+00 -4.98858287E+00
  8.91791998E-03 -4.30064833E+00 -4.98858287E+00  8.91791998E-03 -8.70268643E+00
 -3.27990815E+00  6.92813285E-03 -8.70268643E+00 -3.27990815E+00  6.92813285E-03
  7.88922798E+00  3.99818313E+00  2.05872434E-02  7.88922798E+00  3.99818313E+00
  2.05872434E-02  8.66911100E+00 -5.92787775E-01  8.23348007E-03  8.66911100E+00
 -5.92787775E-01  8.23348007E-03  2.77307786E-01 -4.76099488E+00  9.87030415E-03
  2.77307786E-01 -4.76099488E+00  9.87030415E-03  2.77307786E-01 -4.76099488E+00
  9.87030415E-03  2.77307786E-01 -4.76099488E+00  9.87030415E-03  2.77307786E-01
 -4.76099488E+00  9.87030415E-03 -1.13158452E+00  5.37073541E+00 -5.74091240E-03
 -1.13158452E+00  5.37073541E+00 -5.74091240E-03 -1.13158452E+00  5.37073541E+00
 -5.74091240E-03 -1.13158452E+00  5.37073541E+00 -5.74091240E-03 -1.13158452E+00
  5.37073541E+00 -5.74091240E-03  5.22776424E+00 -4.14564695E+00 -3.17796000E-02
  5.22776424E+00 -4.14564695E+00 -3.17796000E-02  5.22776424E+00 -4.14564695E+00
 -3.17796000E-02  5.22776424E+00 -4.14564695E+00 -3.17796000E-02  5.22776424E+00
 -4.14564695E+00 -3.17796000E-02  7.02676897E+00 -4.76361404E+00  5.53020605E-02
  7.02676897E+00 -4.76361404E+00  5.53020605E-02  3.75014207E+00 -5.36499610E+00
  1.84372642E-02  3.75014207E+00 -5.36499610E+00  1.84372642E-02
Constraint Structure                       R   N=          78
 -7.49217229E+00  6.16283685E-01 -6.22778144E-04 -5.43628534E+00  2.25626811E+00
 -3.91356613E-03 -2.97169446E+00  1.29455696E+00 -2.58750751E-03 -2.57184597E+00
 -1.33234661E+00  1.94256288E-03 -4.65100246E+00 -2.96908556E+00  5.52882844E-03