1_amino_anthraquinone opt                                               
FOpt      RB3LYP                                                      6-31G(d)            
Number of atoms                            I               26
Info1-9                                    I   N=           9
          60          60           0           0           0         110
           2          18        -502
Charge                                     I                0
Multiplicity                               I                1
Number of electrons                        I              116
Number of alpha electrons                  I               58
Number of beta electrons                   I               58
Number of basis functions                  I              273
Number of independent functions            I              273
Number of point charges in /Mol/           I                0
Number of translation vectors              I                0
Atomic numbers                             I   N=          26
           6           6           6           6           6           6
           6           6           6           6           6           1
           6           6           6           1           1           1
           1           1           1           8           8           7
           1           1
Nuclear charges                            R   N=          26
  6.00000000E+00  6.00000000E+00  6.00000000E+00  6.00000000E+00  6.00000000E+00
  6.00000000E+00  6.00000000E+00  6.00000000E+00  6.00000000E+00  6.00000000E+00
  6.00000000E+00  1.00000000E+00  6.00000000E+00  6.00000000E+00  6.00000000E+00
  1.00000000E+00  1.00000000E+00  1.00000000E+00  1.00000000E+00  1.00000000E+00
  1.00000000E+00  8.00000000E+00  8.00000000E+00  7.00000000E+00  1.00000000E+00
  1.00000000E+00
Current cartesian coordinates              R   N=          78
 -7.49217172E+00  6.16283644E-01 -6.22778348E-04 -5.43628493E+00  2.25626794E+00
 -3.91356335E-03 -2.97169423E+00  1.29455687E+00 -2.58751322E-03 -2.57184577E+00
 -1.33234651E+00  1.94256379E-03 -4.65100210E+00 -2.96908533E+00  5.52882011E-03
 -7.09693105E+00 -1.99994576E+00  4.27429626E-03 -7.97775265E-01  3.07583447E+00
 -4.03956267E-03  2.90245848E-02 -2.42734779E+00  1.71785943E-03  2.18970072E+00
 -6.87724603E-01 -5.70625933E-03  1.80292582E+00  1.97140580E+00 -2.05892337E-03
  3.82475497E+00  3.64454956E+00  5.59427733E-03  3.43927666E+00  5.65588774E+00
  8.01078886E-03  6.29842893E+00  2.69926565E+00  1.18712886E-02  6.74382831E+00
  1.26846624E-01  6.33989044E-03  4.72182993E+00 -1.63208598E+00 -6.35074492E-03
 -9.40332326E+00  1.36699786E+00 -1.70840939E-03 -5.68473043E+00  4.29157408E+00
 -7.22421293E-03 -4.30064800E+00 -4.98858250E+00  8.91791354E-03 -8.70268577E+00
 -3.27990790E+00  6.92813464E-03  7.88922738E+00  3.99818283E+00  2.05872363E-02
  8.66911033E+00 -5.92787732E-01  8.23348354E-03  2.77307774E-01 -4.76099452E+00
  9.87030179E-03 -1.13158443E+00  5.37073500E+00 -5.74091605E-03  5.22776385E+00
 -4.14564664E+00 -3.17796057E-02  7.02676844E+00 -4.76361368E+00  5.53020507E-02
  3.75014178E+00 -5.36499569E+00  1.84372643E-02
Force Field                                I                0
Int Atom Types                             I   N=          26
           0           0           0           0           0           0
           0           0           0           0           0           0
           0           0           0           0           0           0
           0           0           0           0           0           0
           0           0
MM charges                                 R   N=          26
  0.00000000E+00  0.00000000E+00  0.00000000E+00  0.00000000E+00  0.00000000E+00
  0.00000000E+00  0.00000000E+00  0.00000000E+00  0.00000000E+00  0.00000000E+00
  0.00000000E+00  0.00000000E+00  0.00000000E+00  0.00000000E+00  0.00000000E+00
  0.00000000E+00  0.00000000E+00  0.00000000E+00  0.00000000E+00  0.00000000E+00
  0.00000000E+00  0.00000000E+00  0.00000000E+00  0.00000000E+00  0.00000000E+00
  0.00000000E+00
Integer atomic weights                     I   N=          26
          12          12          12          12          12          12
          12          12          12          12          12           1
          12          12          12           1           1           1
           1           1           1          16          16          14
           1           1
Real atomic weights                        R   N=          26
  1.20000000E+01  1.20000000E+01  1.20000000E+01  1.20000000E+01  1.20000000E+01
  1.20000000E+01  1.20000000E+01  1.20000000E+01  1.20000000E+01  1.20000000E+01
  1.20000000E+01  1.00782504E+00  1.20000000E+01  1.20000000E+01  1.20000000E+01
  1.00782504E+00  1.00782504E+00  1.00782504E+00  1.00782504E+00  1.00782504E+00
  1.00782504E+00  1.59949146E+01  1.59949146E+01  1.40030740E+01  1.00782504E+00
  1.00782504E+00
Atom fragment info                         I   N=          26
           0           0           0           0           0           0
           0           0           0           0           0           0
           0           0           0           0           0           0
           0           0           0           0           0           0
           0           0
Atom residue num                           I   N=          26
           0           0           0           0           0           0
           0           0           0           0           0           0
           0           0           0           0           0           0
           0           0           0           0           0           0
           0           0
Nuclear spins                              I   N=          26
           0           0           0           0           0           0
           0           0           0           0           0           1
           0           0           0           1           1           1
           1           1           1           0           0           2
           1           1
Nuclear ZEff                               R   N=          26
 -3.60000000E+00 -3.60000000E+00 -3.60000000E+00 -3.60000000E+00 -3.60000000E+00
 -3.60000000E+00 -3.60000000E+00 -3.60000000E+00 -3.60000000E+00 -3.60000000E+00
 -3.60000000E+00 -1.00000000E+00 -3.60000000E+00 -3.60000000E+00 -3.60000000E+00
 -1.00000000E+00 -1.00000000E+00 -1.00000000E+00 -1.00000000E+00 -1.00000000E+00
 -1.00000000E+00 -5.60000000E+00 -5.60000000E+00 -4.55000000E+00 -1.00000000E+00
 -1.00000000E+00
Nuclear ZNuc                               R   N=          26
  6.00000000E+00  6.00000000E+00  6.00000000E+00  6.00000000E+00  6.00000000E+00
  6.00000000E+00  6.00000000E+00  6.00000000E+00  6.00000000E+00  6.00000000E+00
  6.00000000E+00  1.00000000E+00  6.00000000E+00  6.00000000E+00  6.00000000E+00
  1.00000000E+00  1.00000000E+00  1.00000000E+00  1.00000000E+00  1.00000000E+00
  1.00000000E+00  8.00000000E+00  8.00000000E+00  7.00000000E+00  1.00000000E+00
  1.00000000E+00
Nuclear QMom                               R   N=          26
  0.00000000E+00  0.00000000E+00  0.00000000E+00  0.00000000E+00  0.00000000E+00
  0.00000000E+00  0.00000000E+00  0.00000000E+00  0.00000000E+00  0.00000000E+00
  0.00000000E+00  0.00000000E+00  0.00000000E+00  0.00000000E+00  0.00000000E+00
  0.00000000E+00  0.00000000E+00  0.00000000E+00  0.00000000E+00  0.00000000E+00
  0.00000000E+00  0.00000000E+00  0.00000000E+00  2.04400000E+00  0.00000000E+00
  0.00000000E+00
Nuclear GFac                               R   N=          26
  0.00000000E+00  0.00000000E+00  0.00000000E+00  0.00000000E+00  0.00000000E+00
  0.00000000E+00  0.00000000E+00  0.00000000E+00  0.00000000E+00  0.00000000E+00
  0.00000000E+00  2.79284600E+00  0.00000000E+00  0.00000000E+00  0.00000000E+00
  2.79284600E+00  2.79284600E+00  2.79284600E+00  2.79284600E+00  2.79284600E+00
  2.79284600E+00  0.00000000E+00  0.00000000E+00  4.03761000E-01  2.79284600E+00
  2.79284600E+00
MicOpt                                     I   N=          26
          -1          -1          -1          -1          -1          -1
          -1          -1          -1          -1          -1          -1
          -1          -1          -1          -1          -1          -1
          -1          -1          -1          -1          -1          -1
          -1          -1
SymInf integers                            I   N=          26
           1           1           1           1           1           0
           0           0           0           0           0           0
           0           0           0           0           0           0
           0           0           0           0           0           0
           0           0
RotTr to input orientation                 R   N=          12
  7.80910926E-01  6.24546499E-01  1.09451711E-02  6.24410922E-01 -7.80978677E-01
  1.35390694E-02  1.70037236E-02 -3.73852284E-03 -9.99848437E-01 -8.16472275E-01
 -8.62855301E-01 -1.84855179E-02
Number of contracted shells                I               86
Number of primitive shells                 I              223
Pure/Cartesian d shells                    I                1
Pure/Cartesian f shells                    I                0
Highest angular momentum                   I                2
Largest degree of contraction              I                6
Shell types                                I   N=          86
           0          -1          -1           2           0          -1
          -1           2           0          -1          -1           2
           0          -1          -1           2           0          -1
          -1           2           0          -1          -1           2
           0          -1          -1           2           0          -1
          -1           2           0          -1          -1           2
           0          -1          -1           2           0          -1
          -1           2           0           0           0          -1
          -1           2           0          -1          -1           2
           0          -1          -1           2           0           0
           0           0           0           0           0           0
           0           0           0           0           0          -1
          -1           2           0          -1          -1           2
           0          -1          -1           2           0           0
           0           0
Number of primitives per shell             I   N=          86
           6           3           1           1           6           3
           1           1           6           3           1           1
           6           3           1           1           6           3
           1           1           6           3           1           1
           6           3           1           1           6           3
           1           1           6           3           1           1
           6           3           1           1           6           3
           1           1           3           1           6           3
           1           1           6           3           1           1
           6           3           1           1           3           1
           3           1           3           1           3           1
           3           1           3           1           6           3
           1           1           6           3           1           1
           6           3           1           1           3           1
           3           1
Shell to atom map                          I   N=          86
           1           1           1           1           2           2
           2           2           3           3           3           3
           4           4           4           4           5           5
           5           5           6           6           6           6
           7           7           7           7           8           8
           8           8           9           9           9           9
          10          10          10          10          11          11
          11          11          12          12          13          13
          13          13          14          14          14          14
          15          15          15          15          16          16
          17          17          18          18          19          19
          20          20          21          21          22          22
          22          22          23          23          23          23
          24          24          24          24          25          25
          26          26
Primitive exponents                        R   N=         223
  3.04752488E+03  4.57369518E+02  1.03948685E+02  2.92101553E+01  9.28666296E+00
  3.16392696E+00  7.86827235E+00  1.88128854E+00  5.44249258E-01  1.68714478E-01
  8.00000000E-01  3.04752488E+03  4.57369518E+02  1.03948685E+02  2.92101553E+01
  9.28666296E+00  3.16392696E+00  7.86827235E+00  1.88128854E+00  5.44249258E-01
  1.68714478E-01  8.00000000E-01  3.04752488E+03  4.57369518E+02  1.03948685E+02
  2.92101553E+01  9.28666296E+00  3.16392696E+00  7.86827235E+00  1.88128854E+00
  5.44249258E-01  1.68714478E-01  8.00000000E-01  3.04752488E+03  4.57369518E+02
  1.03948685E+02  2.92101553E+01  9.28666296E+00  3.16392696E+00  7.86827235E+00
  1.88128854E+00  5.44249258E-01  1.68714478E-01  8.00000000E-01  3.04752488E+03
  4.57369518E+02  1.03948685E+02  2.92101553E+01  9.28666296E+00  3.16392696E+00
  7.86827235E+00  1.88128854E+00  5.44249258E-01  1.68714478E-01  8.00000000E-01
  3.04752488E+03  4.57369518E+02  1.03948685E+02  2.92101553E+01  9.28666296E+00
  3.16392696E+00  7.86827235E+00  1.88128854E+00  5.44249258E-01  1.68714478E-01
  8.00000000E-01  3.04752488E+03  4.57369518E+02  1.03948685E+02  2.92101553E+01
  9.28666296E+00  3.16392696E+00  7.86827235E+00  1.88128854E+00  5.44249258E-01
  1.68714478E-01  8.00000000E-01  3.04752488E+03  4.57369518E+02  1.03948685E+02
  2.92101553E+01  9.28666296E+00  3.16392696E+00  7.86827235E+00  1.88128854E+00
  5.44249258E-01  1.68714478E-01  8.00000000E-01  3.04752488E+03  4.57369518E+02
  1.03948685E+02  2.92101553E+01  9.28666296E+00  3.16392696E+00  7.86827235E+00
  1.88128854E+00  5.44249258E-01  1.68714478E-01  8.00000000E-01  3.04752488E+03
  4.57369518E+02  1.03948685E+02  2.92101553E+01  9.28666296E+00  3.16392696E+00
  7.86827235E+00  1.88128854E+00  5.44249258E-01  1.68714478E-01  8.00000000E-01
  3.04752488E+03  4.57369518E+02  1.03948685E+02  2.92101553E+01  9.28666296E+00
  3.16392696E+00  7.86827235E+00  1.88128854E+00  5.44249258E-01  1.68714478E-01
  8.00000000E-01  1.87311370E+01  2.82539436E+00  6.40121692E-01  1.61277759E-01
  3.04752488E+03  4.57369518E+02  1.03948685E+02  2.92101553E+01  9.28666296E+00
  3.16392696E+00  7.86827235E+00  1.88128854E+00  5.44249258E-01  1.68714478E-01
  8.00000000E-01  3.04752488E+03  4.57369518E+02  1.03948685E+02  2.92101553E+01
  9.28666296E+00  3.16392696E+00  7.86827235E+00  1.88128854E+00  5.44249258E-01
  1.68714478E-01  8.00000000E-01  3.04752488E+03  4.57369518E+02  1.03948685E+02
  2.92101553E+01  9.28666296E+00  3.16392696E+00  7.86827235E+00  1.88128854E+00
  5.44249258E-01  1.68714478E-01  8.00000000E-01  1.87311370E+01  2.82539436E+00
  6.40121692E-01  1.61277759E-01  1.87311370E+01  2.82539436E+00  6.40121692E-01
  1.61277759E-01  1.87311370E+01  2.82539436E+00  6.40121692E-01  1.61277759E-01
  1.87311370E+01  2.82539436E+00  6.40121692E-01  1.61277759E-01  1.87311370E+01
  2.82539436E+00  6.40121692E-01  1.61277759E-01  1.87311370E+01  2.82539436E+00
  6.40121692E-01  1.61277759E-01  5.48467166E+03  8.25234946E+02  1.88046958E+02
  5.29645000E+01  1.68975704E+01  5.79963534E+00  1.55396162E+01  3.59993359E+00
  1.01376175E+00  2.70005823E-01  8.00000000E-01  5.48467166E+03  8.25234946E+02
  1.88046958E+02  5.29645000E+01  1.68975704E+01  5.79963534E+00  1.55396162E+01
  3.59993359E+00  1.01376175E+00  2.70005823E-01  8.00000000E-01  4.17351146E+03
  6.27457911E+02  1.42902093E+02  4.02343293E+01  1.28202129E+01  4.39043701E+00
  1.16263619E+01  2.71627981E+00  7.72218397E-01  2.12031498E-01  8.00000000E-01
  1.87311370E+01  2.82539436E+00  6.40121692E-01  1.61277759E-01  1.87311370E+01
  2.82539436E+00  6.40121692E-01  1.61277759E-01
Contraction coefficients                   R   N=         223
  1.83473713E-03  1.40373228E-02  6.88426223E-02  2.32184443E-01  4.67941348E-01
  3.62311985E-01 -1.19332420E-01 -1.60854152E-01  1.14345644E+00  1.00000000E+00
  1.00000000E+00  1.83473713E-03  1.40373228E-02  6.88426223E-02  2.32184443E-01
  4.67941348E-01  3.62311985E-01 -1.19332420E-01 -1.60854152E-01  1.14345644E+00
  1.00000000E+00  1.00000000E+00  1.83473713E-03  1.40373228E-02  6.88426223E-02
  2.32184443E-01  4.67941348E-01  3.62311985E-01 -1.19332420E-01 -1.60854152E-01
  1.14345644E+00  1.00000000E+00  1.00000000E+00  1.83473713E-03  1.40373228E-02
  6.88426223E-02  2.32184443E-01  4.67941348E-01  3.62311985E-01 -1.19332420E-01
 -1.60854152E-01  1.14345644E+00  1.00000000E+00  1.00000000E+00  1.83473713E-03
  1.40373228E-02  6.88426223E-02  2.32184443E-01  4.67941348E-01  3.62311985E-01
 -1.19332420E-01 -1.60854152E-01  1.14345644E+00  1.00000000E+00  1.00000000E+00
  1.83473713E-03  1.40373228E-02  6.88426223E-02  2.32184443E-01  4.67941348E-01
  3.62311985E-01 -1.19332420E-01 -1.60854152E-01  1.14345644E+00  1.00000000E+00
  1.00000000E+00  1.83473713E-03  1.40373228E-02  6.88426223E-02  2.32184443E-01
  4.67941348E-01  3.62311985E-01 -1.19332420E-01 -1.60854152E-01  1.14345644E+00
  1.00000000E+00  1.00000000E+00  1.83473713E-03  1.40373228E-02  6.88426223E-02
  2.32184443E-01  4.67941348E-01  3.62311985E-01 -1.19332420E-01 -1.60854152E-01
  1.14345644E+00  1.00000000E+00  1.00000000E+00  1.83473713E-03  1.40373228E-02
  6.88426223E-02  2.32184443E-01  4.67941348E-01  3.62311985E-01 -1.19332420E-01
 -1.60854152E-01  1.14345644E+00  1.00000000E+00  1.00000000E+00  1.83473713E-03
  1.40373228E-02  6.88426223E-02  2.32184443E-01  4.67941348E-01  3.62311985E-01
 -1.19332420E-01 -1.60854152E-01  1.14345644E+00  1.00000000E+00  1.00000000E+00
  1.83473713E-03  1.40373228E-02  6.88426223E-02  2.32184443E-01  4.67941348E-01
  3.62311985E-01 -1.19332420E-01 -1.60854152E-01  1.14345644E+00  1.00000000E+00
  1.00000000E+00  3.34946043E-02  2.34726953E-01  8.13757326E-01  1.00000000E+00
  1.83473713E-03  1.40373228E-02  6.88426223E-02  2.32184443E-01  4.67941348E-01
  3.62311985E-01 -1.19332420E-01 -1.60854152E-01  1.14345644E+00  1.00000000E+00
  1.00000000E+00  1.83473713E-03  1.40373228E-02  6.88426223E-02  2.32184443E-01
  4.67941348E-01  3.62311985E-01 -1.19332420E-01 -1.60854152E-01  1.14345644E+00
  1.00000000E+00  1.00000000E+00  1.83473713E-03  1.40373228E-02  6.88426223E-02
  2.32184443E-01  4.67941348E-01  3.62311985E-01 -1.19332420E-01 -1.60854152E-01
  1.14345644E+00  1.00000000E+00  1.00000000E+00  3.34946043E-02  2.34726953E-01
  8.13757326E-01  1.00000000E+00  3.34946043E-02  2.34726953E-01  8.13757326E-01
  1.00000000E+00  3.34946043E-02  2.34726953E-01  8.13757326E-01  1.00000000E+00
  3.34946043E-02  2.34726953E-01  8.13757326E-01  1.00000000E+00  3.34946043E-02
  2.34726953E-01  8.13757326E-01  1.00000000E+00  3.34946043E-02  2.34726953E-01
  8.13757326E-01  1.00000000E+00  1.83107443E-03  1.39501722E-02  6.84450781E-02
  2.32714336E-01  4.70192898E-01  3.58520853E-01 -1.10777550E-01 -1.48026263E-01
  1.13076702E+00  1.00000000E+00  1.00000000E+00  1.83107443E-03  1.39501722E-02
  6.84450781E-02  2.32714336E-01  4.70192898E-01  3.58520853E-01 -1.10777550E-01
 -1.48026263E-01  1.13076702E+00  1.00000000E+00  1.00000000E+00  1.83477216E-03
  1.39946270E-02  6.85865518E-02  2.32240873E-01  4.69069948E-01  3.60455199E-01
 -1.14961182E-01 -1.69117479E-01  1.14585195E+00  1.00000000E+00  1.00000000E+00
  3.34946043E-02  2.34726953E-01  8.13757326E-01  1.00000000E+00  3.34946043E-02
  2.34726953E-01  8.13757326E-01  1.00000000E+00
P(S=P) Contraction coefficients            R   N=         223
  0.00000000E+00  0.00000000E+00  0.00000000E+00  0.00000000E+00  0.00000000E+00
  0.00000000E+00  6.89990666E-02  3.16423961E-01  7.44308291E-01  1.00000000E+00
  0.00000000E+00  0.00000000E+00  0.00000000E+00  0.00000000E+00  0.00000000E+00
  0.00000000E+00  0.00000000E+00  6.89990666E-02  3.16423961E-01  7.44308291E-01
  1.00000000E+00  0.00000000E+00  0.00000000E+00  0.00000000E+00  0.00000000E+00
  0.00000000E+00  0.00000000E+00  0.00000000E+00  6.89990666E-02  3.16423961E-01
  7.44308291E-01  1.00000000E+00  0.00000000E+00  0.00000000E+00  0.00000000E+00
  0.00000000E+00  0.00000000E+00  0.00000000E+00  0.00000000E+00  6.89990666E-02
  3.16423961E-01  7.44308291E-01  1.00000000E+00  0.00000000E+00  0.00000000E+00
  0.00000000E+00  0.00000000E+00  0.00000000E+00  0.00000000E+00  0.00000000E+00
  6.89990666E-02  3.16423961E-01  7.44308291E-01  1.00000000E+00  0.00000000E+00
  0.00000000E+00  0.00000000E+00  0.00000000E+00  0.00000000E+00  0.00000000E+00
  0.00000000E+00  6.89990666E-02  3.16423961E-01  7.44308291E-01  1.00000000E+00
  0.00000000E+00  0.00000000E+00  0.00000000E+00  0.00000000E+00  0.00000000E+00
  0.00000000E+00  0.00000000E+00  6.89990666E-02  3.16423961E-01  7.44308291E-01
  1.00000000E+00  0.00000000E+00  0.00000000E+00  0.00000000E+00  0.00000000E+00
  0.00000000E+00  0.00000000E+00  0.00000000E+00  6.89990666E-02  3.16423961E-01
  7.44308291E-01  1.00000000E+00  0.00000000E+00  0.00000000E+00  0.00000000E+00
  0.00000000E+00  0.00000000E+00  0.00000000E+00  0.00000000E+00  6.89990666E-02
  3.16423961E-01  7.44308291E-01  1.00000000E+00  0.00000000E+00  0.00000000E+00
  0.00000000E+00  0.00000000E+00  0.00000000E+00  0.00000000E+00  0.00000000E+00
  6.89990666E-02  3.16423961E-01  7.44308291E-01  1.00000000E+00  0.00000000E+00
  0.00000000E+00  0.00000000E+00  0.00000000E+00  0.00000000E+00  0.00000000E+00
  0.00000000E+00  6.89990666E-02  3.16423961E-01  7.44308291E-01  1.00000000E+00
  0.00000000E+00  0.00000000E+00  0.00000000E+00  0.00000000E+00  0.00000000E+00
  0.00000000E+00  0.00000000E+00  0.00000000E+00  0.00000000E+00  0.00000000E+00
  0.00000000E+00  6.89990666E-02  3.16423961E-01  7.44308291E-01  1.00000000E+00
  0.00000000E+00  0.00000000E+00  0.00000000E+00  0.00000000E+00  0.00000000E+00
  0.00000000E+00  0.00000000E+00  6.89990666E-02  3.16423961E-01  7.44308291E-01
  1.00000000E+00  0.00000000E+00  0.00000000E+00  0.00000000E+00  0.00000000E+00
  0.00000000E+00  0.00000000E+00  0.00000000E+00  6.89990666E-02  3.16423961E-01
  7.44308291E-01  1.00000000E+00  0.00000000E+00  0.00000000E+00  0.00000000E+00
  0.00000000E+00  0.00000000E+00  0.00000000E+00  0.00000000E+00  0.00000000E+00
  0.00000000E+00  0.00000000E+00  0.00000000E+00  0.00000000E+00  0.00000000E+00
  0.00000000E+00  0.00000000E+00  0.00000000E+00  0.00000000E+00  0.00000000E+00
  0.00000000E+00  0.00000000E+00  0.00000000E+00  0.00000000E+00  0.00000000E+00
  0.00000000E+00  0.00000000E+00  0.00000000E+00  0.00000000E+00  0.00000000E+00
  0.00000000E+00  0.00000000E+00  0.00000000E+00  7.08742682E-02  3.39752839E-01
  7.27158577E-01  1.00000000E+00  0.00000000E+00  0.00000000E+00  0.00000000E+00
  0.00000000E+00  0.00000000E+00  0.00000000E+00  0.00000000E+00  7.08742682E-02
  3.39752839E-01  7.27158577E-01  1.00000000E+00  0.00000000E+00  0.00000000E+00
  0.00000000E+00  0.00000000E+00  0.00000000E+00  0.00000000E+00  0.00000000E+00
  6.75797439E-02  3.23907296E-01  7.40895140E-01  1.00000000E+00  0.00000000E+00
  0.00000000E+00  0.00000000E+00  0.00000000E+00  0.00000000E+00  0.00000000E+00
  0.00000000E+00  0.00000000E+00  0.00000000E+00
Coordinates of each shell                  R   N=         258
 -7.49217172E+00  6.16283644E-01 -6.22778348E-04 -7.49217172E+00  6.16283644E-01
 -6.22778348E-04 -7.49217172E+00  6.16283644E-01 -6.22778348E-04 -7.49217172E+00
  6.16283644E-01 -6.22778348E-04 -5.43628493E+00  2.25626794E+00 -3.91356335E-03
 -5.43628493E+00  2.25626794E+00 -3.91356335E-03 -5.43628493E+00  2.25626794E+00
 -3.91356335E-03 -5.43628493E+00  2.25626794E+00 -3.91356335E-03 -2.97169423E+00
  1.29455687E+00 -2.58751322E-03 -2.97169423E+00  1.29455687E+00 -2.58751322E-03
 -2.97169423E+00  1.29455687E+00 -2.58751322E-03 -2.97169423E+00  1.29455687E+00
 -2.58751322E-03 -2.57184577E+00 -1.33234651E+00  1.94256379E-03 -2.57184577E+00
 -1.33234651E+00  1.94256379E-03 -2.57184577E+00 -1.33234651E+00  1.94256379E-03
 -2.57184577E+00 -1.33234651E+00  1.94256379E-03 -4.65100210E+00 -2.96908533E+00
  5.52882011E-03 -4.65100210E+00 -2.96908533E+00  5.52882011E-03 -4.65100210E+00
 -2.96908533E+00  5.52882011E-03 -4.65100210E+00 -2.96908533E+00  5.52882011E-03
 -7.09693105E+00 -1.99994576E+00  4.27429626E-03 -7.09693105E+00 -1.99994576E+00
  4.27429626E-03 -7.09693105E+00 -1.99994576E+00  4.27429626E-03 -7.09693105E+00
 -1.99994576E+00  4.27429626E-03 -7.97775265E-01  3.07583447E+00 -4.03956267E-03
 -7.97775265E-01  3.07583447E+00 -4.03956267E-03 -7.97775265E-01  3.07583447E+00
 -4.03956267E-03 -7.97775265E-01  3.07583447E+00 -4.03956267E-03  2.90245848E-02
 -2.42734779E+00  1.71785943E-03  2.90245848E-02 -2.42734779E+00  1.71785943E-03
  2.90245848E-02 -2.42734779E+00  1.71785943E-03  2.90245848E-02 -2.42734779E+00
  1.71785943E-03  2.18970072E+00 -6.87724603E-01 -5.70625933E-03  2.18970072E+00
 -6.87724603E-01 -5.70625933E-03  2.18970072E+00 -6.87724603E-01 -5.70625933E-03
  2.18970072E+00 -6.87724603E-01 -5.70625933E-03  1.80292582E+00  1.97140580E+00
 -2.05892337E-03  1.80292582E+00  1.97140580E+00 -2.05892337E-03  1.80292582E+00
  1.97140580E+00 -2.05892337E-03  1.80292582E+00  1.97140580E+00 -2.05892337E-03
  3.82475497E+00  3.64454956E+00  5.59427733E-03  3.82475497E+00  3.64454956E+00
  5.59427733E-03  3.82475497E+00  3.64454956E+00  5.59427733E-03  3.82475497E+00
  3.64454956E+00  5.59427733E-03  3.43927666E+00  5.65588774E+00  8.01078886E-03
  3.43927666E+00  5.65588774E+00  8.01078886E-03  6.29842893E+00  2.69926565E+00
  1.18712886E-02  6.29842893E+00  2.69926565E+00  1.18712886E-02  6.29842893E+00
  2.69926565E+00  1.18712886E-02  6.29842893E+00  2.69926565E+00  1.18712886E-02
  6.74382831E+00  1.26846624E-01  6.33989044E-03  6.74382831E+00  1.26846624E-01
  6.33989044E-03  6.74382831E+00  1.26846624E-01  6.33989044E-03  6.74382831E+00
  1.26846624E-01  6.33989044E-03  4.72182993E+00 -1.63208598E+00 -6.35074492E-03
  4.72182993E+00 -1.63208598E+00 -6.35074492E-03  4.72182993E+00 -1.63208598E+00
 -6.35074492E-03  4.72182993E+00 -1.63208598E+00 -6.35074492E-03 -9.40332326E+00
  1.36699786E+00 -1.70840939E-03 -9.40332326E+00  1.36699786E+00 -1.70840939E-03
 -5.68473043E+00  4.29157408E+00 -7.22421293E-03 -5.68473043E+00  4.29157408E+00
 -7.22421293E-03 -4.30064800E+00 -4.98858250E+00  8.91791354E-03 -4.30064800E+00
 -4.98858250E+00  8.91791354E-03 -8.70268577E+00 -3.27990790E+00  6.92813464E-03
 -8.70268577E+00 -3.27990790E+00  6.92813464E-03  7.88922738E+00  3.99818283E+00
  2.05872363E-02  7.88922738E+00  3.99818283E+00  2.05872363E-02  8.66911033E+00
 -5.92787732E-01  8.23348354E-03  8.66911033E+00 -5.92787732E-01  8.23348354E-03
  2.77307774E-01 -4.76099452E+00  9.87030179E-03  2.77307774E-01 -4.76099452E+00
  9.87030179E-03  2.77307774E-01 -4.76099452E+00  9.87030179E-03  2.77307774E-01
 -4.76099452E+00  9.87030179E-03 -1.13158443E+00  5.37073500E+00 -5.74091605E-03
 -1.13158443E+00  5.37073500E+00 -5.74091605E-03 -1.13158443E+00  5.37073500E+00
 -5.74091605E-03 -1.13158443E+00  5.37073500E+00 -5.74091605E-03  5.22776385E+00
 -4.14564664E+00 -3.17796057E-02  5.22776385E+00 -4.14564664E+00 -3.17796057E-02
  5.22776385E+00 -4.14564664E+00 -3.17796057E-02  5.22776385E+00 -4.14564664E+00
 -3.17796057E-02  7.02676844E+00 -4.76361368E+00  5.53020507E-02  7.02676844E+00
 -4.76361368E+00  5.53020507E-02  3.75014178E+00 -5.36499569E+00  1.84372643E-02
  3.75014178E+00 -5.36499569E+00  1.84372643E-02
Constraint Structure                       R   N=          78
 -7.41909766E+00  5.32239659E-01 -3.62910663E-03 -5.43974601E+00  2.18514755E+00
  5.58926708E-03 -2.88536017E+00  1.28702253E+00  3.76378319E-03 -2.44352609E+00
 -1.37657707E+00  2.52115513E-03 -4.57121363E+00 -3.05121631E+00 -4.46901406E-03
 -6.97820198E+00 -2.12581870E+00 -8.76113768E-03 -8.28556168E-01  2.94829203E+00
  3.83573705E-03  3.94052687E-02 -2.28501195E+00  3.83858750E-03  2.09626244E+00
 -6.23680508E-01  2.53324339E-03  1.65444419E+00  2.03983762E+00  1.81219237E-04
  3.78221834E+00  3.71426341E+00 -3.80892749E-03  3.41659531E+00  5.76146725E+00
 -7.33639335E-03  6.18922238E+00  2.78875790E+00 -7.85672862E-03  6.63006001E+00
  1.30787062E-01 -4.05936348E-03  4.65049150E+00 -1.52199776E+00  6.44390178E-04
 -9.38244481E+00  1.21503661E+00 -6.80299037E-03 -5.75464538E+00  4.24072645E+00
  8.74886167E-03 -4.20548161E+00 -5.09836159E+00 -4.71501069E-03 -8.61665947E+00
 -3.40502735E+00 -1.32846365E-02  7.82738317E+00  4.06839526E+00 -1.22681592E-02
  8.59359232E+00 -5.51581515E-01 -7.49560022E-03  4.80894529E-01 -4.95101200E+00
  2.63314911E-03 -1.27126950E+00  5.61408915E+00  4.91400647E-03  5.07051042E+00
 -4.26795550E+00  4.41448077E-03  6.04613758E+00 -4.75807715E+00 -1.53798536E+00
  6.04653516E+00 -4.75377950E+00  1.54792205E+00
Num ILSW                                   I              100
ILSW                                       I   N=         100
           0           1           0           0           2           0
           0           0           0           0         402          -1
           5           0           0           0           2           0
           0           0           0           0           1           0
           1           0           0           0           0           0
           0           0      100000           0          -1           0
           0           0           0           0           0           0