 Entering Gaussian System, Link 0=/opt/app/gaussian09/e01/g09/g09.exec
 Input=1_nitro_anthraquinone_opt.gjf
 Output=1_nitro_anthraquinone_opt.log
 Initial command:
 /opt/app/gaussian09/e01/g09/l1.exe "./Gau-54649.inp" -scrdir="./"
 Entering Link 1 = /opt/app/gaussian09/e01/g09/l1.exe PID=     54653.
  
 Copyright (c) 1988,1990,1992,1993,1995,1998,2003,2009,2015,
            Gaussian, Inc.  All Rights Reserved.
  
 This is part of the Gaussian(R) 09 program.  It is based on
 the Gaussian(R) 03 system (copyright 2003, Gaussian, Inc.),
 the Gaussian(R) 98 system (copyright 1998, Gaussian, Inc.),
 the Gaussian(R) 94 system (copyright 1995, Gaussian, Inc.),
 the Gaussian 92(TM) system (copyright 1992, Gaussian, Inc.),
 the Gaussian 90(TM) system (copyright 1990, Gaussian, Inc.),
 the Gaussian 88(TM) system (copyright 1988, Gaussian, Inc.),
 the Gaussian 86(TM) system (copyright 1986, Carnegie Mellon
 University), and the Gaussian 82(TM) system (copyright 1983,
 Carnegie Mellon University). Gaussian is a federally registered
 trademark of Gaussian, Inc.
  
 This software contains proprietary and confidential information,
 including trade secrets, belonging to Gaussian, Inc.
  
 This software is provided under written license and may be
 used, copied, transmitted, or stored only in accord with that
 written license.
  
 The following legend is applicable only to US Government
 contracts under FAR:
  
                    RESTRICTED RIGHTS LEGEND
  
 Use, reproduction and disclosure by the US Government is
 subject to restrictions as set forth in subparagraphs (a)
 and (c) of the Commercial Computer Software - Restricted
 Rights clause in FAR 52.227-19.
  
 Gaussian, Inc.
 340 Quinnipiac St., Bldg. 40, Wallingford CT 06492
  
  
 ---------------------------------------------------------------
 Warning -- This program may not be used in any manner that
 competes with the business of Gaussian, Inc. or will provide
 assistance to any competitor of Gaussian, Inc.  The licensee
 of this program is prohibited from giving any competitor of
 Gaussian, Inc. access to this program.  By using this program,
 the user acknowledges that Gaussian, Inc. is engaged in the
 business of creating and licensing software in the field of
 computational chemistry and represents and warrants to the
 licensee that it is not a competitor of Gaussian, Inc. and that
 it will not use this program in any manner prohibited above.
 ---------------------------------------------------------------
  

 Cite this work as:
 Gaussian 09, Revision E.01,
 M. J. Frisch, G. W. Trucks, H. B. Schlegel, G. E. Scuseria, 
 M. A. Robb, J. R. Cheeseman, G. Scalmani, V. Barone, B. Mennucci, 
 G. A. Petersson, H. Nakatsuji, M. Caricato, X. Li, H. P. Hratchian, 
 A. F. Izmaylov, J. Bloino, G. Zheng, J. L. Sonnenberg, M. Hada, 
 M. Ehara, K. Toyota, R. Fukuda, J. Hasegawa, M. Ishida, T. Nakajima, 
 Y. Honda, O. Kitao, H. Nakai, T. Vreven, J. A. Montgomery, Jr., 
 J. E. Peralta, F. Ogliaro, M. Bearpark, J. J. Heyd, E. Brothers, 
 K. N. Kudin, V. N. Staroverov, T. Keith, R. Kobayashi, J. Normand, 
 K. Raghavachari, A. Rendell, J. C. Burant, S. S. Iyengar, J. Tomasi, 
 M. Cossi, N. Rega, J. M. Millam, M. Klene, J. E. Knox, J. B. Cross, 
 V. Bakken, C. Adamo, J. Jaramillo, R. Gomperts, R. E. Stratmann, 
 O. Yazyev, A. J. Austin, R. Cammi, C. Pomelli, J. W. Ochterski, 
 R. L. Martin, K. Morokuma, V. G. Zakrzewski, G. A. Voth, 
 P. Salvador, J. J. Dannenberg, S. Dapprich, A. D. Daniels, 
 O. Farkas, J. B. Foresman, J. V. Ortiz, J. Cioslowski, 
 and D. J. Fox, Gaussian, Inc., Wallingford CT, 2013.
 
 ******************************************
 Gaussian 09:  ES64L-G09RevE.01 30-Nov-2015
                 3-Jun-2021 
 ******************************************
 %chk=1_nitro_anthraquinone_opt.chk
 -----------------------------------------------------
 #p opt b3lyp/6-31g(d) geom=connectivity int=ultrafine
 -----------------------------------------------------
 1/14=-1,18=20,19=15,26=4,38=1,57=2/1,3;
 2/9=110,12=2,17=6,18=5,40=1/2;
 3/5=1,6=6,7=1,11=2,16=1,25=1,30=1,71=1,74=-5,75=-5/1,2,3;
 4//1;
 5/5=2,38=5/2;
 6/7=2,8=2,9=2,10=2,28=1/1;
 7//1,2,3,16;
 1/14=-1,18=20,19=15,26=4/3(2);
 2/9=110/2;
 99//99;
 2/9=110/2;
 3/5=1,6=6,7=1,11=2,16=1,25=1,30=1,71=1,74=-5,75=-5/1,2,3;
 4/5=5,16=3,69=1/1;
 5/5=2,38=5/2;
 7//1,2,3,16;
 1/14=-1,18=20,19=15,26=4/3(-5);
 2/9=110/2;
 6/7=2,8=2,9=2,10=2,19=2,28=1/1;
 99/9=1/99;
 Leave Link    1 at Thu Jun  3 21:25:29 2021, MaxMem=           0 cpu:         0.0
 (Enter /opt/app/gaussian09/e01/g09/l101.exe)
 -------------------------
 1_nitro_anthraquinone opt
 -------------------------
 Symbolic Z-matrix:
 Charge =  0 Multiplicity = 1
 C                    -3.31666  -3.20308  -0.04605 
 C                    -1.95203  -3.20308  -0.04605 
 C                    -1.21914  -1.97185  -0.04605 
 C                    -1.94314  -0.74011  -0.05156 
 C                    -3.37538  -0.7816   -0.05286 
 C                    -4.03916  -1.97389  -0.04949 
 C                     0.17976  -1.94897  -0.04115 
 C                    -1.24276   0.47106  -0.05328 
 C                     0.15618   0.49394  -0.04766 
 C                     0.88015  -0.73776  -0.04024 
 C                     2.31233  -0.69614  -0.03313 
 H                     2.8582   -1.65166  -0.02653 
 C                     2.97607   0.49622  -0.03209 
 C                     2.25358   1.72533  -0.04026 
 C                     0.88894   1.72519  -0.04763 
 H                    -3.88253  -4.14635  -0.04364 
 H                    -1.38271  -4.14481  -0.04294 
 H                    -3.92119   0.17395  -0.05747 
 H                    -5.13856  -2.01006  -0.05092 
 H                     4.07547   0.53212  -0.02593 
 H                     2.81966   2.66851  -0.03916 
 O                    -1.96771   1.70366  -0.05883 
 O                     0.90414  -3.1819   -0.03554 
 N                     0.12816   2.98298  -0.056 
 O                     0.72498   4.06716  -0.05775 
 O                    -0.72429   2.84702  -0.94286 
 
 NAtoms=     26 NQM=       26 NQMF=       0 NMMI=      0 NMMIF=      0
                NMic=       0 NMicF=      0.
                    Isotopes and Nuclear Properties:
 (Nuclear quadrupole moments (NQMom) in fm**2, nuclear magnetic moments (NMagM)
  in nuclear magnetons)

  Atom         1           2           3           4           5           6           7           8           9          10
 IAtWgt=          12          12          12          12          12          12          12          12          12          12
 AtmWgt=  12.0000000  12.0000000  12.0000000  12.0000000  12.0000000  12.0000000  12.0000000  12.0000000  12.0000000  12.0000000
 NucSpn=           0           0           0           0           0           0           0           0           0           0
 AtZEff=   0.0000000   0.0000000   0.0000000   0.0000000   0.0000000   0.0000000   0.0000000   0.0000000   0.0000000   0.0000000
 NQMom=    0.0000000   0.0000000   0.0000000   0.0000000   0.0000000   0.0000000   0.0000000   0.0000000   0.0000000   0.0000000
 NMagM=    0.0000000   0.0000000   0.0000000   0.0000000   0.0000000   0.0000000   0.0000000   0.0000000   0.0000000   0.0000000
 AtZNuc=   6.0000000   6.0000000   6.0000000   6.0000000   6.0000000   6.0000000   6.0000000   6.0000000   6.0000000   6.0000000

  Atom        11          12          13          14          15          16          17          18          19          20
 IAtWgt=          12           1          12          12          12           1           1           1           1           1
 AtmWgt=  12.0000000   1.0078250  12.0000000  12.0000000  12.0000000   1.0078250   1.0078250   1.0078250   1.0078250   1.0078250
 NucSpn=           0           1           0           0           0           1           1           1           1           1
 AtZEff=   0.0000000   0.0000000   0.0000000   0.0000000   0.0000000   0.0000000   0.0000000   0.0000000   0.0000000   0.0000000
 NQMom=    0.0000000   0.0000000   0.0000000   0.0000000   0.0000000   0.0000000   0.0000000   0.0000000   0.0000000   0.0000000
 NMagM=    0.0000000   2.7928460   0.0000000   0.0000000   0.0000000   2.7928460   2.7928460   2.7928460   2.7928460   2.7928460
 AtZNuc=   6.0000000   1.0000000   6.0000000   6.0000000   6.0000000   1.0000000   1.0000000   1.0000000   1.0000000   1.0000000

  Atom        21          22          23          24          25          26
 IAtWgt=           1          16          16          14          16          16
 AtmWgt=   1.0078250  15.9949146  15.9949146  14.0030740  15.9949146  15.9949146
 NucSpn=           1           0           0           2           0           0
 AtZEff=   0.0000000   0.0000000   0.0000000   0.0000000   0.0000000   0.0000000
 NQMom=    0.0000000   0.0000000   0.0000000   2.0440000   0.0000000   0.0000000
 NMagM=    2.7928460   0.0000000   0.0000000   0.4037610   0.0000000   0.0000000
 AtZNuc=   1.0000000   8.0000000   8.0000000   7.0000000   8.0000000   8.0000000
 Leave Link  101 at Thu Jun  3 21:25:29 2021, MaxMem=    33554432 cpu:         0.1
 (Enter /opt/app/gaussian09/e01/g09/l103.exe)

 GradGradGradGradGradGradGradGradGradGradGradGradGradGradGradGradGradGrad
 Berny optimization.
 Initialization pass.
                           ----------------------------
                           !    Initial Parameters    !
                           ! (Angstroms and Degrees)  !
 --------------------------                            --------------------------
 ! Name  Definition              Value          Derivative Info.                !
 --------------------------------------------------------------------------------
 ! R1    R(1,2)                  1.3646         estimate D2E/DX2                !
 ! R2    R(1,6)                  1.4258         estimate D2E/DX2                !
 ! R3    R(1,16)                 1.1            estimate D2E/DX2                !
 ! R4    R(2,3)                  1.4328         estimate D2E/DX2                !
 ! R5    R(2,17)                 1.1005         estimate D2E/DX2                !
 ! R6    R(3,4)                  1.4288         estimate D2E/DX2                !
 ! R7    R(3,7)                  1.3991         estimate D2E/DX2                !
 ! R8    R(4,5)                  1.4328         estimate D2E/DX2                !
 ! R9    R(4,8)                  1.3991         estimate D2E/DX2                !
 ! R10   R(5,6)                  1.3646         estimate D2E/DX2                !
 ! R11   R(5,18)                 1.1005         estimate D2E/DX2                !
 ! R12   R(6,19)                 1.1            estimate D2E/DX2                !
 ! R13   R(7,10)                 1.3991         estimate D2E/DX2                !
 ! R14   R(7,23)                 1.43           estimate D2E/DX2                !
 ! R15   R(8,9)                  1.3991         estimate D2E/DX2                !
 ! R16   R(8,22)                 1.43           estimate D2E/DX2                !
 ! R17   R(9,10)                 1.4287         estimate D2E/DX2                !
 ! R18   R(9,15)                 1.4328         estimate D2E/DX2                !
 ! R19   R(10,11)                1.4328         estimate D2E/DX2                !
 ! R20   R(11,12)                1.1005         estimate D2E/DX2                !
 ! R21   R(11,13)                1.3646         estimate D2E/DX2                !
 ! R22   R(13,14)                1.4258         estimate D2E/DX2                !
 ! R23   R(13,20)                1.1            estimate D2E/DX2                !
 ! R24   R(14,15)                1.3647         estimate D2E/DX2                !
 ! R25   R(14,21)                1.1            estimate D2E/DX2                !
 ! R26   R(15,24)                1.47           estimate D2E/DX2                !
 ! R27   R(24,25)                1.2376         estimate D2E/DX2                !
 ! R28   R(24,26)                1.2376         estimate D2E/DX2                !
 ! A1    A(2,1,6)              120.4466         estimate D2E/DX2                !
 ! A2    A(2,1,16)             120.9594         estimate D2E/DX2                !
 ! A3    A(6,1,16)             118.5939         estimate D2E/DX2                !
 ! A4    A(1,2,3)              120.7635         estimate D2E/DX2                !
 ! A5    A(1,2,17)             121.155          estimate D2E/DX2                !
 ! A6    A(3,2,17)             118.0813         estimate D2E/DX2                !
 ! A7    A(2,3,4)              118.7901         estimate D2E/DX2                !
 ! A8    A(2,3,7)              121.7006         estimate D2E/DX2                !
 ! A9    A(4,3,7)              119.5092         estimate D2E/DX2                !
 ! A10   A(3,4,5)              118.7868         estimate D2E/DX2                !
 ! A11   A(3,4,8)              119.5145         estimate D2E/DX2                !
 ! A12   A(5,4,8)              121.6986         estimate D2E/DX2                !
 ! A13   A(4,5,6)              120.765          estimate D2E/DX2                !
 ! A14   A(4,5,18)             118.0759         estimate D2E/DX2                !
 ! A15   A(6,5,18)             121.1591         estimate D2E/DX2                !
 ! A16   A(1,6,5)              120.4476         estimate D2E/DX2                !
 ! A17   A(1,6,19)             118.5627         estimate D2E/DX2                !
 ! A18   A(5,6,19)             120.9896         estimate D2E/DX2                !
 ! A19   A(3,7,10)             120.9763         estimate D2E/DX2                !
 ! A20   A(3,7,23)             119.4985         estimate D2E/DX2                !
 ! A21   A(10,7,23)            119.5252         estimate D2E/DX2                !
 ! A22   A(4,8,9)              120.9759         estimate D2E/DX2                !
 ! A23   A(4,8,22)             119.499          estimate D2E/DX2                !
 ! A24   A(9,8,22)             119.5251         estimate D2E/DX2                !
 ! A25   A(8,9,10)             119.5096         estimate D2E/DX2                !
 ! A26   A(8,9,15)             121.6954         estimate D2E/DX2                !
 ! A27   A(10,9,15)            118.7949         estimate D2E/DX2                !
 ! A28   A(7,10,9)             119.5142         estimate D2E/DX2                !
 ! A29   A(7,10,11)            121.7035         estimate D2E/DX2                !
 ! A30   A(9,10,11)            118.7822         estimate D2E/DX2                !
 ! A31   A(10,11,12)           118.0746         estimate D2E/DX2                !
 ! A32   A(10,11,13)           120.7675         estimate D2E/DX2                !
 ! A33   A(12,11,13)           121.1578         estimate D2E/DX2                !
 ! A34   A(11,13,14)           120.4489         estimate D2E/DX2                !
 ! A35   A(11,13,20)           120.9732         estimate D2E/DX2                !
 ! A36   A(14,13,20)           118.5779         estimate D2E/DX2                !
 ! A37   A(13,14,15)           120.4423         estimate D2E/DX2                !
 ! A38   A(13,14,21)           118.5802         estimate D2E/DX2                !
 ! A39   A(15,14,21)           120.9774         estimate D2E/DX2                !
 ! A40   A(9,15,14)            120.7641         estimate D2E/DX2                !
 ! A41   A(9,15,24)            118.0731         estimate D2E/DX2                !
 ! A42   A(14,15,24)           121.1628         estimate D2E/DX2                !
 ! A43   A(15,24,25)           120.0            estimate D2E/DX2                !
 ! A44   A(15,24,26)           105.4598         estimate D2E/DX2                !
 ! A45   A(25,24,26)           115.3021         estimate D2E/DX2                !
 ! D1    D(6,1,2,3)              0.1607         estimate D2E/DX2                !
 ! D2    D(6,1,2,17)           179.9717         estimate D2E/DX2                !
 ! D3    D(16,1,2,3)          -179.854          estimate D2E/DX2                !
 ! D4    D(16,1,2,17)           -0.0429         estimate D2E/DX2                !
 ! D5    D(2,1,6,5)              0.0013         estimate D2E/DX2                !
 ! D6    D(2,1,6,19)           179.9091         estimate D2E/DX2                !
 ! D7    D(16,1,6,5)          -179.9844         estimate D2E/DX2                !
 ! D8    D(16,1,6,19)           -0.0766         estimate D2E/DX2                !
 ! D9    D(1,2,3,4)             -0.2525         estimate D2E/DX2                !
 ! D10   D(1,2,3,7)            179.7643         estimate D2E/DX2                !
 ! D11   D(17,2,3,4)           179.9308         estimate D2E/DX2                !
 ! D12   D(17,2,3,7)            -0.0524         estimate D2E/DX2                !
 ! D13   D(2,3,4,5)              0.1839         estimate D2E/DX2                !
 ! D14   D(2,3,4,8)           -179.9227         estimate D2E/DX2                !
 ! D15   D(7,3,4,5)           -179.8326         estimate D2E/DX2                !
 ! D16   D(7,3,4,8)              0.0609         estimate D2E/DX2                !
 ! D17   D(2,3,7,10)          -179.9531         estimate D2E/DX2                !
 ! D18   D(2,3,7,23)            -0.021          estimate D2E/DX2                !
 ! D19   D(4,3,7,10)             0.0639         estimate D2E/DX2                !
 ! D20   D(4,3,7,23)           179.996          estimate D2E/DX2                !
 ! D21   D(3,4,5,6)             -0.0283         estimate D2E/DX2                !
 ! D22   D(3,4,5,18)          -179.98           estimate D2E/DX2                !
 ! D23   D(8,4,5,6)           -179.9193         estimate D2E/DX2                !
 ! D24   D(8,4,5,18)             0.129          estimate D2E/DX2                !
 ! D25   D(3,4,8,9)             -0.0966         estimate D2E/DX2                !
 ! D26   D(3,4,8,22)           179.9991         estimate D2E/DX2                !
 ! D27   D(5,4,8,9)            179.7937         estimate D2E/DX2                !
 ! D28   D(5,4,8,22)            -0.1107         estimate D2E/DX2                !
 ! D29   D(4,5,6,1)             -0.0673         estimate D2E/DX2                !
 ! D30   D(4,5,6,19)          -179.9728         estimate D2E/DX2                !
 ! D31   D(18,5,6,1)           179.8829         estimate D2E/DX2                !
 ! D32   D(18,5,6,19)           -0.0226         estimate D2E/DX2                !
 ! D33   D(3,7,10,9)            -0.1515         estimate D2E/DX2                !
 ! D34   D(3,7,10,11)          179.9003         estimate D2E/DX2                !
 ! D35   D(23,7,10,9)          179.9164         estimate D2E/DX2                !
 ! D36   D(23,7,10,11)          -0.0317         estimate D2E/DX2                !
 ! D37   D(4,8,9,10)             0.0089         estimate D2E/DX2                !
 ! D38   D(4,8,9,15)          -179.9202         estimate D2E/DX2                !
 ! D39   D(22,8,9,10)          179.9133         estimate D2E/DX2                !
 ! D40   D(22,8,9,15)           -0.0159         estimate D2E/DX2                !
 ! D41   D(8,9,10,7)             0.115          estimate D2E/DX2                !
 ! D42   D(8,9,10,11)         -179.9353         estimate D2E/DX2                !
 ! D43   D(15,9,10,7)         -179.9538         estimate D2E/DX2                !
 ! D44   D(15,9,10,11)          -0.0041         estimate D2E/DX2                !
 ! D45   D(8,9,15,14)          179.9107         estimate D2E/DX2                !
 ! D46   D(8,9,15,24)           -0.1009         estimate D2E/DX2                !
 ! D47   D(10,9,15,14)          -0.0189         estimate D2E/DX2                !
 ! D48   D(10,9,15,24)         179.9695         estimate D2E/DX2                !
 ! D49   D(7,10,11,12)          -0.106          estimate D2E/DX2                !
 ! D50   D(7,10,11,13)        -179.9865         estimate D2E/DX2                !
 ! D51   D(9,10,11,12)         179.9455         estimate D2E/DX2                !
 ! D52   D(9,10,11,13)           0.065          estimate D2E/DX2                !
 ! D53   D(10,11,13,14)         -0.1018         estimate D2E/DX2                !
 ! D54   D(10,11,13,20)        179.9569         estimate D2E/DX2                !
 ! D55   D(12,11,13,14)       -179.9786         estimate D2E/DX2                !
 ! D56   D(12,11,13,20)          0.0801         estimate D2E/DX2                !
 ! D57   D(11,13,14,15)          0.078          estimate D2E/DX2                !
 ! D58   D(11,13,14,21)        179.9999         estimate D2E/DX2                !
 ! D59   D(20,13,14,15)       -179.9793         estimate D2E/DX2                !
 ! D60   D(20,13,14,21)         -0.0574         estimate D2E/DX2                !
 ! D61   D(13,14,15,9)          -0.0166         estimate D2E/DX2                !
 ! D62   D(13,14,15,24)        179.9954         estimate D2E/DX2                !
 ! D63   D(21,14,15,9)        -179.9366         estimate D2E/DX2                !
 ! D64   D(21,14,15,24)          0.0754         estimate D2E/DX2                !
 ! D65   D(9,15,24,25)        -179.9196         estimate D2E/DX2                !
 ! D66   D(9,15,24,26)         -47.7202         estimate D2E/DX2                !
 ! D67   D(14,15,24,25)          0.0688         estimate D2E/DX2                !
 ! D68   D(14,15,24,26)        132.2681         estimate D2E/DX2                !
 --------------------------------------------------------------------------------
 Trust Radius=3.00D-01 FncErr=1.00D-07 GrdErr=1.00D-06
 Number of steps in this run=    151 maximum allowed number of steps=    156.
 GradGradGradGradGradGradGradGradGradGradGradGradGradGradGradGradGradGrad

 Leave Link  103 at Thu Jun  3 21:25:29 2021, MaxMem=    33554432 cpu:         0.0
 (Enter /opt/app/gaussian09/e01/g09/l202.exe)
                          Input orientation:                          
 ---------------------------------------------------------------------
 Center     Atomic      Atomic             Coordinates (Angstroms)
 Number     Number       Type             X           Y           Z
 ---------------------------------------------------------------------
      1          6           0       -3.316656   -3.203076   -0.046045
      2          6           0       -1.952033   -3.203076   -0.046045
      3          6           0       -1.219142   -1.971855   -0.046045
      4          6           0       -1.943139   -0.740108   -0.051563
      5          6           0       -3.375379   -0.781599   -0.052863
      6          6           0       -4.039162   -1.973892   -0.049492
      7          6           0        0.179759   -1.948966   -0.041149
      8          6           0       -1.242762    0.471059   -0.053284
      9          6           0        0.156179    0.493943   -0.047659
     10          6           0        0.880148   -0.737760   -0.040239
     11          6           0        2.312330   -0.696136   -0.033129
     12          1           0        2.858200   -1.651663   -0.026528
     13          6           0        2.976067    0.496219   -0.032087
     14          6           0        2.253584    1.725334   -0.040259
     15          6           0        0.888941    1.725189   -0.047626
     16          1           0       -3.882528   -4.146354   -0.043641
     17          1           0       -1.382707   -4.144810   -0.042939
     18          1           0       -3.921192    0.173947   -0.057467
     19          1           0       -5.138560   -2.010057   -0.050923
     20          1           0        4.075473    0.532123   -0.025927
     21          1           0        2.819664    2.668511   -0.039164
     22          8           0       -1.967714    1.703664   -0.058828
     23          8           0        0.904144   -3.181903   -0.035539
     24          7           0        0.128158    2.982981   -0.056004
     25          8           0        0.724982    4.067163   -0.057750
     26          8           0       -0.724287    2.847022   -0.942857
 ---------------------------------------------------------------------
                    Distance matrix (angstroms):
                    1          2          3          4          5
     1  C    0.000000
     2  C    1.364623   0.000000
     3  C    2.432174   1.432841   0.000000
     4  C    2.820069   2.462990   1.428777   0.000000
     5  C    2.422199   2.808827   2.462948   1.432841   0.000000
     6  C    1.425805   2.422192   2.820023   2.432188   1.364618
     7  C    3.714530   2.473328   1.399097   2.442978   3.741910
     8  C    4.219047   3.741976   2.443039   1.399091   2.473299
     9  C    5.072330   4.255879   2.823415   2.435166   3.754855
    10  C    4.867338   3.754872   2.435168   2.823311   4.255772
    11  C    6.162013   4.946686   3.754853   4.255736   5.688385
    12  H    6.366797   5.054266   4.089942   4.887168   6.294062
    13  C    7.299544   6.162073   4.867377   5.072225   6.478743
    14  C    7.437529   6.478925   5.072383   4.867342   6.161988
    15  C    6.478800   5.688491   4.255837   3.754781   4.946558
    16  H    1.099996   2.148625   3.438325   3.919669   3.402773
    17  H    2.151054   1.100457   2.179105   3.450530   3.909224
    18  H    3.430726   3.909220   3.450460   2.179042   1.100455
    19  H    2.177763   3.402539   3.919607   3.438530   2.148935
    20  H    8.282251   7.091047   5.856898   6.151660   7.565830
    21  H    8.492939   7.566021   6.151829   5.856887   7.090980
    22  O    5.088802   4.906782   3.750995   2.443906   2.856237
    23  O    4.220866   2.856275   2.443905   3.750952   4.906738
    24  N    7.080546   6.526453   5.134755   4.260479   5.142649
    25  O    8.318134   7.747446   6.344249   5.498069   6.350077
    26  O    6.642916   6.238214   4.926533   3.891980   4.581186
                    6          7          8          9         10
     6  C    0.000000
     7  C    4.219003   0.000000
     8  C    3.714519   2.807175   0.000000
     9  C    4.867350   2.443031   1.399139   0.000000
    10  C    5.072250   1.399130   2.442982   1.428733   0.000000
    11  C    6.478764   2.473359   3.741848   2.462821   1.432804
    12  H    6.904923   2.694930   4.617852   3.450361   2.179013
    13  C    7.437418   3.714613   4.218957   2.819932   2.432210
    14  C    7.299521   4.219151   3.714540   2.432177   2.820134
    15  C    6.161932   3.741978   2.473263   1.432797   2.462976
    16  H    2.178109   4.618517   5.318737   6.151709   5.856757
    17  H    3.430697   2.695002   4.618002   4.887353   4.090050
    18  H    2.151091   4.617881   2.694862   4.089920   4.887164
    19  H    1.099994   5.318679   4.618786   5.856986   6.151723
    20  H    8.492819   4.618725   5.318656   3.919540   3.438446
    21  H    8.282240   5.318853   4.618690   3.438455   3.919746
    22  O    4.220830   4.237175   1.430000   2.444272   3.751161
    23  O    5.088788   1.430000   4.237175   3.751193   2.444266
    24  N    6.475892   4.932239   2.861674   2.489209   3.796004
    25  O    7.693600   6.040807   4.099268   3.618223   4.807459
    26  O    5.918421   4.963051   2.589470   2.667129   4.029837
                   11         12         13         14         15
    11  C    0.000000
    12  H    1.100477   0.000000
    13  C    1.364646   2.151121   0.000000
    14  C    2.422193   3.430723   1.425753   0.000000
    15  C    2.808747   3.909163   2.422128   1.364663   0.000000
    16  H    7.090866   7.187572   8.282146   8.492856   7.565841
    17  H    5.054379   4.919486   6.366960   6.905158   6.294227
    18  H    6.294000   7.020966   6.904831   6.366707   5.054090
    19  H    7.565875   8.004824   8.492876   8.282334   7.091040
    20  H    2.148801   2.500135   1.100009   2.177897   3.402626
    21  H    3.402686   4.320364   2.177927   1.100014   2.148865
    22  O    4.906982   5.877814   5.089165   4.221394   2.856757
    23  O    2.856927   2.481945   4.221547   5.089400   4.907131
    24  N    4.278671   5.379026   3.780891   2.469688   1.470000
    25  O    5.020886   6.103815   4.221336   2.796621   2.347728
    26  O    4.754220   5.823404   4.477543   3.307655   2.159271
                   16         17         18         19         20
    16  H    0.000000
    17  H    2.499822   0.000000
    18  H    4.320496   5.009569   0.000000
    19  H    2.478192   4.320147   2.500380   0.000000
    20  H    9.231373   7.187887   8.004745   9.558332   0.000000
    21  H    9.558336   8.005078   7.187651   9.231601   2.478182
    22  O    6.155441   5.877681   2.481152   4.883242   6.155785
    23  O    4.882874   2.481316   5.877591   6.155301   4.883791
    24  N    8.180047   7.286170   4.928276   7.257325   4.646386
    25  O    9.417601   8.478152   6.061688   8.444748   4.870658
    26  O    7.725955   7.080189   4.260217   6.623637   5.407144
                   21         22         23         24         25
    21  H    0.000000
    22  O    4.883677   0.000000
    23  O    6.156020   5.667175   0.000000
    24  N    2.709867   2.455470   6.213563   0.000000
    25  O    2.518782   3.582839   7.251314   1.237600   0.000000
    26  O    3.661709   1.906537   6.310543   1.237600   2.091062
                   26
    26  O    0.000000
 Stoichiometry    C14H7NO4
 Framework group  C1[X(C14H7NO4)]
 Deg. of freedom    72
 Full point group                 C1      NOp   1
 Largest Abelian subgroup         C1      NOp   1
 Largest concise Abelian subgroup C1      NOp   1
                         Standard orientation:                         
 ---------------------------------------------------------------------
 Center     Atomic      Atomic             Coordinates (Angstroms)
 Number     Number       Type             X           Y           Z
 ---------------------------------------------------------------------
      1          6           0       -4.249415   -0.435749    0.008563
      2          6           0       -3.437037    0.660312    0.038328
      3          6           0       -2.011745    0.517292    0.004815
      4          6           0       -1.453229   -0.796438   -0.054985
      5          6           0       -2.339164   -1.922206   -0.083258
      6          6           0       -3.692110   -1.746673   -0.053170
      7          6           0       -1.160670    1.627487    0.029517
      8          6           0       -0.063369   -0.953726   -0.086682
      9          6           0        0.787713    0.156533   -0.062707
     10          6           0        0.229178    1.470294   -0.004810
     11          6           0        1.115073    2.596178    0.017653
     12          1           0        0.672371    3.602732    0.061380
     13          6           0        2.467957    2.420753   -0.016847
     14          6           0        3.025311    1.109694   -0.073857
     15          6           0        2.212947    0.013396   -0.096257
     16          1           0       -5.344031   -0.329596    0.031741
     17          1           0       -3.854628    1.677365    0.085504
     18          1           0       -1.896451   -2.928644   -0.128980
     19          1           0       -4.375619   -2.608274   -0.074266
     20          1           0        3.151169    3.282712   -0.000464
     21          1           0        4.119902    1.003912   -0.100522
     22          8           0        0.495269   -2.268734   -0.146511
     23          8           0       -1.719913    2.942240    0.089281
     24          7           0        2.770540   -1.345476   -0.155049
     25          8           0        3.996752   -1.510476   -0.183875
     26          8           0        2.171000   -1.986125    0.717748
 ---------------------------------------------------------------------
 Rotational constants (GHZ):      0.6900433      0.3287444      0.2246712
 Leave Link  202 at Thu Jun  3 21:25:29 2021, MaxMem=    33554432 cpu:         0.0
 (Enter /opt/app/gaussian09/e01/g09/l301.exe)
 Standard basis: 6-31G(d) (6D, 7F)
 Ernie: Thresh=  0.10000D-02 Tol=  0.10000D-05 Strict=F.
 There are   299 symmetry adapted cartesian basis functions of A   symmetry.
 There are   299 symmetry adapted basis functions of A   symmetry.
   299 basis functions,   560 primitive gaussians,   299 cartesian basis functions
    65 alpha electrons       65 beta electrons
       nuclear repulsion energy      1342.2730670683 Hartrees.
 IExCor=  402 DFT=T Ex+Corr=B3LYP ExCW=0 ScaHFX=  0.200000
 ScaDFX=  0.800000  0.720000  1.000000  0.810000 ScalE2=  1.000000  1.000000
 IRadAn=      5 IRanWt=     -1 IRanGd=            0 ICorTp=0 IEmpDi=  4
 NAtoms=   26 NActive=   26 NUniq=   26 SFac= 1.00D+00 NAtFMM=   60 NAOKFM=F Big=F
 Integral buffers will be    131072 words long.
 Raffenetti 2 integral format.
 Two-electron integral symmetry is turned on.
 Leave Link  301 at Thu Jun  3 21:25:29 2021, MaxMem=    33554432 cpu:         0.0
 (Enter /opt/app/gaussian09/e01/g09/l302.exe)
 NPDir=0 NMtPBC=     1 NCelOv=     1 NCel=       1 NClECP=     1 NCelD=      1
         NCelK=      1 NCelE2=     1 NClLst=     1 CellRange=     0.0.
 One-electron integrals computed using PRISM.
 NBasis=   299 RedAO= T EigKep=  1.71D-04  NBF=   299
 NBsUse=   299 1.00D-06 EigRej= -1.00D+00 NBFU=   299
 Precomputing XC quadrature grid using
 IXCGrd= 4 IRadAn=           5 IRanWt=          -1 IRanGd=           0 AccXCQ= 0.00D+00.
 Generated NRdTot=       0 NPtTot=           0 NUsed=           0 NTot=          32
 NSgBfM=   298   298   298   298   298 MxSgAt=    26 MxSgA2=    26.
 Leave Link  302 at Thu Jun  3 21:25:31 2021, MaxMem=    33554432 cpu:         1.4
 (Enter /opt/app/gaussian09/e01/g09/l303.exe)
 DipDrv:  MaxL=1.
 Leave Link  303 at Thu Jun  3 21:25:31 2021, MaxMem=    33554432 cpu:         0.0
 (Enter /opt/app/gaussian09/e01/g09/l401.exe)
 ExpMin= 1.61D-01 ExpMax= 5.48D+03 ExpMxC= 8.25D+02 IAcc=3 IRadAn=         5 AccDes= 0.00D+00
 Harris functional with IExCor=  402 and IRadAn=       5 diagonalized for initial guess.
 HarFok:  IExCor=  402 AccDes= 0.00D+00 IRadAn=         5 IDoV= 1 UseB2=F ITyADJ=14
 ICtDFT=  3500011 ScaDFX=  1.000000  1.000000  1.000000  1.000000
 FoFCou: FMM=F IPFlag=           0 FMFlag=      100000 FMFlg1=           0
         NFxFlg=           0 DoJE=T BraDBF=F KetDBF=T FulRan=T
         wScrn=  0.000000 ICntrl=     500 IOpCl=  0 I1Cent=   200000004 NGrid=           0
         NMat0=    1 NMatS0=      1 NMatT0=    0 NMatD0=    1 NMtDS0=    0 NMtDT0=    0
 Petite list used in FoFCou.
 Harris En= -893.090947970295    
 JPrj=0 DoOrth=F DoCkMO=F.
 Leave Link  401 at Thu Jun  3 21:25:51 2021, MaxMem=    33554432 cpu:        19.4
 (Enter /opt/app/gaussian09/e01/g09/l502.exe)
 Closed shell SCF:
 Using DIIS extrapolation, IDIIS=  1040.
 Integral symmetry usage will be decided dynamically.
 IVT=      290782 IEndB=      290782 NGot=    33554432 MDV=    33369991
 LenX=    33369991 LenY=    33280149
 Requested convergence on RMS density matrix=1.00D-08 within 128 cycles.
 Requested convergence on MAX density matrix=1.00D-06.
 Requested convergence on             energy=1.00D-06.
 No special actions if energy rises.
 Fock matrices will be formed incrementally for  20 cycles.
 Integral accuracy reduced to 1.0D-05 until final iterations.

 Cycle   1  Pass 0  IDiag  1:
 FoFJK:  IHMeth= 1 ICntrl=       0 DoSepK=F KAlg= 0 I1Cent=   0 FoldK=F
 IRaf= 790000000 NMat=   1 IRICut=       1 DoRegI=T DoRafI=F ISym2E= 0.
 FoFCou: FMM=F IPFlag=           0 FMFlag=      100000 FMFlg1=           0
         NFxFlg=           0 DoJE=F BraDBF=F KetDBF=F FulRan=T
         wScrn=  0.000000 ICntrl=       0 IOpCl=  0 I1Cent=           0 NGrid=           0
         NMat0=    1 NMatS0=      1 NMatT0=    0 NMatD0=    1 NMtDS0=    0 NMtDT0=    0
 Symmetry not used in FoFCou.
 E= -892.557497169888    
 DIIS: error= 2.69D-02 at cycle   1 NSaved=   1.
 NSaved= 1 IEnMin= 1 EnMin= -892.557497169888     IErMin= 1 ErrMin= 2.69D-02
 ErrMax= 2.69D-02  0.00D+00 EMaxC= 1.00D-01 BMatC= 5.12D-01 BMatP= 5.12D-01
 IDIUse=3 WtCom= 7.31D-01 WtEn= 2.69D-01
 Coeff-Com:  0.100D+01
 Coeff-En:   0.100D+01
 Coeff:      0.100D+01
 Gap=     0.009 Goal=   None    Shift=    0.000
 GapD=    0.009 DampG=0.250 DampE=0.500 DampFc=0.2500 IDamp=-1.
 Damping current iteration by 2.50D-01
 RMSDP=9.45D-03 MaxDP=4.06D-01              OVMax= 8.15D-01

 Cycle   2  Pass 0  IDiag  1:
 RMSU=  2.34D-03    CP:  9.84D-01
 E= -892.571493318776     Delta-E=       -0.013996148887 Rises=F Damp=T
 DIIS: error= 1.73D-02 at cycle   2 NSaved=   2.
 NSaved= 2 IEnMin= 2 EnMin= -892.571493318776     IErMin= 2 ErrMin= 1.73D-02
 ErrMax= 1.73D-02  0.00D+00 EMaxC= 1.00D-01 BMatC= 1.53D-01 BMatP= 5.12D-01
 IDIUse=3 WtCom= 8.27D-01 WtEn= 1.73D-01
 Coeff-Com:  0.127D+00 0.873D+00
 Coeff-En:   0.487D+00 0.513D+00
 Coeff:      0.189D+00 0.811D+00
 Gap=     0.205 Goal=   None    Shift=    0.000
 RMSDP=4.69D-03 MaxDP=1.85D-01 DE=-1.40D-02 OVMax= 6.43D-01

 Cycle   3  Pass 0  IDiag  1:
 RMSU=  4.49D-03    CP:  9.35D-01  6.37D-01
 E= -892.031595771898     Delta-E=        0.539897546877 Rises=F Damp=F
 DIIS: error= 5.13D-02 at cycle   3 NSaved=   3.
 NSaved= 3 IEnMin= 2 EnMin= -892.571493318776     IErMin= 2 ErrMin= 1.73D-02
 ErrMax= 5.13D-02  0.00D+00 EMaxC= 1.00D-01 BMatC= 8.58D-01 BMatP= 1.53D-01
 IDIUse=2 WtCom= 0.00D+00 WtEn= 1.00D+00
 EnCoef did     4 forward-backward iterations
 Coeff-En:   0.174D+00 0.565D+00 0.261D+00
 Coeff:      0.174D+00 0.565D+00 0.261D+00
 Gap=     0.007 Goal=   None    Shift=    0.000
 RMSDP=5.22D-03 MaxDP=2.69D-01 DE= 5.40D-01 OVMax= 7.54D-01

 Cycle   4  Pass 0  IDiag  1:
 RMSU=  3.63D-03    CP:  9.43D-01  1.28D+00  2.36D-01
 E= -892.686807390014     Delta-E=       -0.655211618116 Rises=F Damp=F
 DIIS: error= 3.55D-02 at cycle   4 NSaved=   4.
 NSaved= 4 IEnMin= 4 EnMin= -892.686807390014     IErMin= 2 ErrMin= 1.73D-02
 ErrMax= 3.55D-02  0.00D+00 EMaxC= 1.00D-01 BMatC= 3.41D-01 BMatP= 1.53D-01
 IDIUse=2 WtCom= 0.00D+00 WtEn= 1.00D+00
 EnCoef did     4 forward-backward iterations
 Coeff-En:   0.157D+00 0.000D+00 0.255D+00 0.588D+00
 Coeff:      0.157D+00 0.000D+00 0.255D+00 0.588D+00
 Gap=     0.096 Goal=   None    Shift=    0.000
 RMSDP=4.19D-03 MaxDP=1.93D-01 DE=-6.55D-01 OVMax= 6.66D-01

 Cycle   5  Pass 0  IDiag  1:
 RMSU=  2.81D-03    CP:  9.52D-01  6.10D-01  4.83D-01  3.28D-01
 E= -892.645133463979     Delta-E=        0.041673926034 Rises=F Damp=F
 DIIS: error= 3.26D-02 at cycle   5 NSaved=   5.
 NSaved= 5 IEnMin= 4 EnMin= -892.686807390014     IErMin= 2 ErrMin= 1.73D-02
 ErrMax= 3.26D-02  0.00D+00 EMaxC= 1.00D-01 BMatC= 4.18D-01 BMatP= 1.53D-01
 IDIUse=2 WtCom= 0.00D+00 WtEn= 1.00D+00
 EnCoef did    11 forward-backward iterations
 Coeff-En:   0.000D+00 0.000D+00 0.492D-01 0.522D+00 0.429D+00
 Coeff:      0.000D+00 0.000D+00 0.492D-01 0.522D+00 0.429D+00
 Gap=     0.056 Goal=   None    Shift=    0.000
 RMSDP=3.10D-03 MaxDP=1.37D-01 DE= 4.17D-02 OVMax= 3.41D-01

 Cycle   6  Pass 0  IDiag  1:
 RMSU=  1.68D-03    CP:  9.49D-01  5.34D-01  4.18D-01  4.59D-01  9.50D-02
 E= -892.888193215235     Delta-E=       -0.243059751256 Rises=F Damp=F
 DIIS: error= 2.37D-02 at cycle   6 NSaved=   6.
 NSaved= 6 IEnMin= 6 EnMin= -892.888193215235     IErMin= 2 ErrMin= 1.73D-02
 ErrMax= 2.37D-02  0.00D+00 EMaxC= 1.00D-01 BMatC= 1.87D-01 BMatP= 1.53D-01
 IDIUse=2 WtCom= 0.00D+00 WtEn= 1.00D+00
 EnCoef did     3 forward-backward iterations
 Coeff-En:   0.000D+00 0.000D+00 0.000D+00 0.358D+00 0.313D+00 0.329D+00
 Coeff:      0.000D+00 0.000D+00 0.000D+00 0.358D+00 0.313D+00 0.329D+00
 Gap=     0.043 Goal=   None    Shift=    0.000
 RMSDP=2.44D-03 MaxDP=1.44D-01 DE=-2.43D-01 OVMax= 3.81D-01

 Cycle   7  Pass 0  IDiag  1:
 RMSU=  1.16D-03    CP:  9.50D-01  9.10D-01  2.95D-01  7.64D-01  4.39D-01
                    CP:  2.97D-01
 E= -893.046984832939     Delta-E=       -0.158791617705 Rises=F Damp=F
 DIIS: error= 8.04D-03 at cycle   7 NSaved=   7.
 NSaved= 7 IEnMin= 7 EnMin= -893.046984832939     IErMin= 7 ErrMin= 8.04D-03
 ErrMax= 8.04D-03  0.00D+00 EMaxC= 1.00D-01 BMatC= 3.14D-02 BMatP= 1.53D-01
 IDIUse=3 WtCom= 9.20D-01 WtEn= 8.04D-02
 Coeff-Com: -0.914D-01 0.111D+00-0.335D-01 0.243D-01 0.137D+00 0.370D+00
 Coeff-Com:  0.482D+00
 Coeff-En:   0.000D+00 0.000D+00 0.000D+00 0.000D+00 0.000D+00 0.215D+00
 Coeff-En:   0.785D+00
 Coeff:     -0.840D-01 0.102D+00-0.308D-01 0.223D-01 0.126D+00 0.358D+00
 Coeff:      0.507D+00
 Gap=     0.045 Goal=   None    Shift=    0.000
 RMSDP=1.13D-03 MaxDP=5.81D-02 DE=-1.59D-01 OVMax= 1.86D-01

 Cycle   8  Pass 0  IDiag  1:
 RMSU=  4.89D-04    CP:  9.50D-01  7.52D-01  3.36D-01  6.44D-01  3.84D-01
                    CP:  6.59D-01  5.37D-01
 E= -893.066908220238     Delta-E=       -0.019923387299 Rises=F Damp=F
 DIIS: error= 5.18D-03 at cycle   8 NSaved=   8.
 NSaved= 8 IEnMin= 8 EnMin= -893.066908220238     IErMin= 8 ErrMin= 5.18D-03
 ErrMax= 5.18D-03  0.00D+00 EMaxC= 1.00D-01 BMatC= 1.02D-02 BMatP= 3.14D-02
 IDIUse=3 WtCom= 9.48D-01 WtEn= 5.18D-02
 Coeff-Com: -0.536D-01 0.726D-01-0.101D-01-0.125D-01 0.289D-01 0.131D+00
 Coeff-Com:  0.373D+00 0.471D+00
 Coeff-En:   0.000D+00 0.000D+00 0.000D+00 0.000D+00 0.000D+00 0.000D+00
 Coeff-En:   0.330D+00 0.670D+00
 Coeff:     -0.508D-01 0.689D-01-0.955D-02-0.118D-01 0.274D-01 0.124D+00
 Coeff:      0.371D+00 0.481D+00
 Gap=     0.049 Goal=   None    Shift=    0.000
 RMSDP=4.03D-04 MaxDP=1.53D-02 DE=-1.99D-02 OVMax= 6.50D-02

 Cycle   9  Pass 0  IDiag  1:
 RMSU=  1.98D-04    CP:  9.50D-01  7.93D-01  3.22D-01  6.90D-01  3.92D-01
                    CP:  6.07D-01  7.11D-01  6.23D-01
 E= -893.076561202081     Delta-E=       -0.009652981843 Rises=F Damp=F
 DIIS: error= 1.84D-03 at cycle   9 NSaved=   9.
 NSaved= 9 IEnMin= 9 EnMin= -893.076561202081     IErMin= 9 ErrMin= 1.84D-03
 ErrMax= 1.84D-03  0.00D+00 EMaxC= 1.00D-01 BMatC= 1.24D-03 BMatP= 1.02D-02
 IDIUse=3 WtCom= 9.82D-01 WtEn= 1.84D-02
 Coeff-Com: -0.253D-01 0.455D-01 0.248D-02-0.773D-02 0.166D-02-0.252D-02
 Coeff-Com:  0.148D+00 0.286D+00 0.552D+00
 Coeff-En:   0.000D+00 0.000D+00 0.000D+00 0.000D+00 0.000D+00 0.000D+00
 Coeff-En:   0.434D-01 0.000D+00 0.957D+00
 Coeff:     -0.249D-01 0.446D-01 0.243D-02-0.759D-02 0.163D-02-0.247D-02
 Coeff:      0.146D+00 0.281D+00 0.560D+00
 Gap=     0.052 Goal=   None    Shift=    0.000
 RMSDP=1.97D-04 MaxDP=6.28D-03 DE=-9.65D-03 OVMax= 3.82D-02

 Cycle  10  Pass 0  IDiag  1:
 RMSU=  1.09D-04    CP:  9.50D-01  8.22D-01  3.15D-01  7.14D-01  3.85D-01
                    CP:  5.74D-01  7.82D-01  7.15D-01  8.34D-01
 E= -893.078056833212     Delta-E=       -0.001495631131 Rises=F Damp=F
 DIIS: error= 8.05D-04 at cycle  10 NSaved=  10.
 NSaved=10 IEnMin=10 EnMin= -893.078056833212     IErMin=10 ErrMin= 8.05D-04
 ErrMax= 8.05D-04  0.00D+00 EMaxC= 1.00D-01 BMatC= 1.88D-04 BMatP= 1.24D-03
 IDIUse=3 WtCom= 9.92D-01 WtEn= 8.05D-03
 Coeff-Com: -0.126D-01 0.216D-01 0.309D-02-0.677D-02 0.412D-02-0.183D-01
 Coeff-Com:  0.388D-01 0.917D-01 0.296D+00 0.583D+00
 Coeff-En:   0.000D+00 0.000D+00 0.000D+00 0.000D+00 0.000D+00 0.000D+00
 Coeff-En:   0.000D+00 0.000D+00 0.000D+00 0.100D+01
 Coeff:     -0.125D-01 0.214D-01 0.307D-02-0.672D-02 0.408D-02-0.182D-01
 Coeff:      0.385D-01 0.910D-01 0.293D+00 0.586D+00
 Gap=     0.053 Goal=   None    Shift=    0.000
 RMSDP=7.57D-05 MaxDP=3.59D-03 DE=-1.50D-03 OVMax= 1.16D-02

 Cycle  11  Pass 0  IDiag  1:
 RMSU=  4.20D-05    CP:  9.50D-01  8.29D-01  3.12D-01  7.22D-01  3.87D-01
                    CP:  5.63D-01  8.10D-01  7.44D-01  1.01D+00  1.04D+00
 E= -893.078219174995     Delta-E=       -0.000162341783 Rises=F Damp=F
 DIIS: error= 6.65D-04 at cycle  11 NSaved=  11.
 NSaved=11 IEnMin=11 EnMin= -893.078219174995     IErMin=11 ErrMin= 6.65D-04
 ErrMax= 6.65D-04  0.00D+00 EMaxC= 1.00D-01 BMatC= 8.32D-05 BMatP= 1.88D-04
 IDIUse=3 WtCom= 9.93D-01 WtEn= 6.65D-03
 Coeff-Com: -0.649D-02 0.755D-02 0.218D-02-0.871D-02 0.498D-02-0.441D-02
 Coeff-Com:  0.139D-01 0.241D-01 0.684D-01 0.258D+00 0.641D+00
 Coeff-En:   0.000D+00 0.000D+00 0.000D+00 0.000D+00 0.000D+00 0.000D+00
 Coeff-En:   0.000D+00 0.000D+00 0.000D+00 0.000D+00 0.100D+01
 Coeff:     -0.645D-02 0.749D-02 0.217D-02-0.865D-02 0.495D-02-0.438D-02
 Coeff:      0.138D-01 0.239D-01 0.679D-01 0.256D+00 0.643D+00
 Gap=     0.053 Goal=   None    Shift=    0.000
 RMSDP=5.36D-05 MaxDP=1.50D-03 DE=-1.62D-04 OVMax= 1.03D-02

 Cycle  12  Pass 0  IDiag  1:
 RMSU=  2.50D-05    CP:  9.50D-01  8.33D-01  3.13D-01  7.26D-01  3.85D-01
                    CP:  5.59D-01  8.40D-01  7.48D-01  1.05D+00  1.25D+00
                    CP:  1.03D+00
 E= -893.078271857493     Delta-E=       -0.000052682498 Rises=F Damp=F
 DIIS: error= 5.08D-04 at cycle  12 NSaved=  12.
 NSaved=12 IEnMin=12 EnMin= -893.078271857493     IErMin=12 ErrMin= 5.08D-04
 ErrMax= 5.08D-04  0.00D+00 EMaxC= 1.00D-01 BMatC= 4.83D-05 BMatP= 8.32D-05
 IDIUse=3 WtCom= 9.95D-01 WtEn= 5.08D-03
 Coeff-Com: -0.310D-02 0.297D-02 0.108D-02-0.752D-02 0.384D-02 0.240D-02
 Coeff-Com:  0.699D-03 0.199D-01-0.175D-02-0.940D-01 0.364D+00 0.711D+00
 Coeff-En:   0.000D+00 0.000D+00 0.000D+00 0.000D+00 0.000D+00 0.000D+00
 Coeff-En:   0.000D+00 0.000D+00 0.000D+00 0.000D+00 0.000D+00 0.100D+01
 Coeff:     -0.308D-02 0.295D-02 0.108D-02-0.748D-02 0.382D-02 0.238D-02
 Coeff:      0.696D-03 0.198D-01-0.174D-02-0.935D-01 0.362D+00 0.713D+00
 Gap=     0.053 Goal=   None    Shift=    0.000
 RMSDP=3.01D-05 MaxDP=1.21D-03 DE=-5.27D-05 OVMax= 3.19D-03

 Cycle  13  Pass 0  IDiag  1:
 RMSU=  1.50D-05    CP:  9.50D-01  8.33D-01  3.14D-01  7.26D-01  3.85D-01
                    CP:  5.62D-01  8.52D-01  7.62D-01  1.10D+00  1.35D+00
                    CP:  1.33D+00  1.17D+00
 E= -893.078319557595     Delta-E=       -0.000047700101 Rises=F Damp=F
 DIIS: error= 2.69D-04 at cycle  13 NSaved=  13.
 NSaved=13 IEnMin=13 EnMin= -893.078319557595     IErMin=13 ErrMin= 2.69D-04
 ErrMax= 2.69D-04  0.00D+00 EMaxC= 1.00D-01 BMatC= 1.56D-05 BMatP= 4.83D-05
 IDIUse=3 WtCom= 9.97D-01 WtEn= 2.69D-03
 Coeff-Com: -0.192D-03 0.176D-04-0.434D-04-0.341D-02 0.149D-02 0.312D-02
 Coeff-Com: -0.195D-02 0.230D-01-0.170D-02-0.224D+00-0.464D-01 0.459D+00
 Coeff-Com:  0.791D+00
 Coeff-En:   0.000D+00 0.000D+00 0.000D+00 0.000D+00 0.000D+00 0.000D+00
 Coeff-En:   0.000D+00 0.000D+00 0.000D+00 0.000D+00 0.000D+00 0.000D+00
 Coeff-En:   0.100D+01
 Coeff:     -0.191D-03 0.176D-04-0.433D-04-0.340D-02 0.148D-02 0.312D-02
 Coeff:     -0.195D-02 0.229D-01-0.169D-02-0.223D+00-0.463D-01 0.457D+00
 Coeff:      0.792D+00
 Gap=     0.053 Goal=   None    Shift=    0.000
 RMSDP=2.65D-05 MaxDP=9.66D-04 DE=-4.77D-05 OVMax= 3.55D-03

 Cycle  14  Pass 0  IDiag  1:
 RMSU=  9.22D-06    CP:  9.50D-01  8.33D-01  3.14D-01  7.27D-01  3.84D-01
                    CP:  5.62D-01  8.64D-01  7.74D-01  1.14D+00  1.43D+00
                    CP:  1.57D+00  1.67D+00  9.31D-01
 E= -893.078335945670     Delta-E=       -0.000016388075 Rises=F Damp=F
 DIIS: error= 1.04D-04 at cycle  14 NSaved=  14.
 NSaved=14 IEnMin=14 EnMin= -893.078335945670     IErMin=14 ErrMin= 1.04D-04
 ErrMax= 1.04D-04  0.00D+00 EMaxC= 1.00D-01 BMatC= 3.34D-06 BMatP= 1.56D-05
 IDIUse=3 WtCom= 9.99D-01 WtEn= 1.04D-03
 Coeff-Com:  0.812D-03-0.805D-03-0.326D-03-0.327D-03 0.157D-03 0.456D-03
 Coeff-Com: -0.390D-02 0.128D-01 0.809D-02-0.124D+00-0.149D+00 0.581D-01
 Coeff-Com:  0.604D+00 0.594D+00
 Coeff-En:   0.000D+00 0.000D+00 0.000D+00 0.000D+00 0.000D+00 0.000D+00
 Coeff-En:   0.000D+00 0.000D+00 0.000D+00 0.000D+00 0.000D+00 0.000D+00
 Coeff-En:   0.000D+00 0.100D+01
 Coeff:      0.811D-03-0.804D-03-0.326D-03-0.327D-03 0.157D-03 0.456D-03
 Coeff:     -0.390D-02 0.128D-01 0.808D-02-0.124D+00-0.149D+00 0.580D-01
 Coeff:      0.604D+00 0.595D+00
 Gap=     0.053 Goal=   None    Shift=    0.000
 RMSDP=1.18D-05 MaxDP=4.01D-04 DE=-1.64D-05 OVMax= 1.21D-03

 Cycle  15  Pass 0  IDiag  1:
 RMSU=  3.83D-06    CP:  9.50D-01  8.33D-01  3.14D-01  7.27D-01  3.84D-01
                    CP:  5.63D-01  8.68D-01  7.79D-01  1.16D+00  1.47D+00
                    CP:  1.68D+00  1.81D+00  1.25D+00  7.52D-01
 E= -893.078340077969     Delta-E=       -0.000004132299 Rises=F Damp=F
 DIIS: error= 3.51D-05 at cycle  15 NSaved=  15.
 NSaved=15 IEnMin=15 EnMin= -893.078340077969     IErMin=15 ErrMin= 3.51D-05
 ErrMax= 3.51D-05  0.00D+00 EMaxC= 1.00D-01 BMatC= 2.86D-07 BMatP= 3.34D-06
 IDIUse=1 WtCom= 1.00D+00 WtEn= 0.00D+00
 Coeff-Com:  0.360D-03-0.302D-03-0.136D-03 0.890D-05-0.652D-04-0.102D-03
 Coeff-Com: -0.158D-02 0.629D-02 0.831D-02-0.387D-01-0.745D-01-0.945D-02
 Coeff-Com:  0.246D+00 0.333D+00 0.531D+00
 Coeff:      0.360D-03-0.302D-03-0.136D-03 0.890D-05-0.652D-04-0.102D-03
 Coeff:     -0.158D-02 0.629D-02 0.831D-02-0.387D-01-0.745D-01-0.945D-02
 Coeff:      0.246D+00 0.333D+00 0.531D+00
 Gap=     0.053 Goal=   None    Shift=    0.000
 RMSDP=2.65D-06 MaxDP=8.44D-05 DE=-4.13D-06 OVMax= 2.28D-04

 Initial convergence to 1.0D-05 achieved.  Increase integral accuracy.
 Cycle  16  Pass 1  IDiag  1:
 E= -893.078395048000     Delta-E=       -0.000054970031 Rises=F Damp=F
 DIIS: error= 8.20D-05 at cycle   1 NSaved=   1.
 NSaved= 1 IEnMin= 1 EnMin= -893.078395048000     IErMin= 1 ErrMin= 8.20D-05
 ErrMax= 8.20D-05  0.00D+00 EMaxC= 1.00D-01 BMatC= 6.17D-07 BMatP= 6.17D-07
 IDIUse=1 WtCom= 1.00D+00 WtEn= 0.00D+00
 Coeff-Com:  0.100D+01
 Coeff:      0.100D+01
 Gap=     0.053 Goal=   None    Shift=    0.000
 RMSDP=2.65D-06 MaxDP=8.44D-05 DE=-5.50D-05 OVMax= 5.41D-04

 Cycle  17  Pass 1  IDiag  1:
 RMSU=  5.26D-05    CP:  1.00D+00
 E= -893.078394945218     Delta-E=        0.000000102781 Rises=F Damp=F
 DIIS: error= 2.85D-05 at cycle   2 NSaved=   2.
 NSaved= 2 IEnMin= 1 EnMin= -893.078395048000     IErMin= 2 ErrMin= 2.85D-05
 ErrMax= 2.85D-05  0.00D+00 EMaxC= 1.00D-01 BMatC= 5.28D-07 BMatP= 6.17D-07
 IDIUse=1 WtCom= 1.00D+00 WtEn= 0.00D+00
 Coeff-Com:  0.470D+00 0.530D+00
 Coeff:      0.470D+00 0.530D+00
 Gap=     0.053 Goal=   None    Shift=    0.000
 RMSDP=7.66D-06 MaxDP=3.76D-04 DE= 1.03D-07 OVMax= 1.21D-03

 Cycle  18  Pass 1  IDiag  1:
 RMSU=  7.66D-06    CP:  1.00D+00  9.96D-01
 E= -893.078394475215     Delta-E=        0.000000470003 Rises=F Damp=F
 DIIS: error= 4.78D-05 at cycle   3 NSaved=   3.
 NSaved= 3 IEnMin= 1 EnMin= -893.078395048000     IErMin= 2 ErrMin= 2.85D-05
 ErrMax= 4.78D-05  0.00D+00 EMaxC= 1.00D-01 BMatC= 1.08D-06 BMatP= 5.28D-07
 IDIUse=1 WtCom= 1.00D+00 WtEn= 0.00D+00
 Coeff-Com:  0.638D-01 0.562D+00 0.374D+00
 Coeff:      0.638D-01 0.562D+00 0.374D+00
 Gap=     0.053 Goal=   None    Shift=    0.000
 RMSDP=4.29D-06 MaxDP=2.35D-04 DE= 4.70D-07 OVMax= 6.22D-04

 Cycle  19  Pass 1  IDiag  1:
 RMSU=  1.67D-06    CP:  1.00D+00  1.01D+00  4.90D-01
 E= -893.078395421991     Delta-E=       -0.000000946776 Rises=F Damp=F
 DIIS: error= 1.45D-05 at cycle   4 NSaved=   4.
 NSaved= 4 IEnMin= 4 EnMin= -893.078395421991     IErMin= 4 ErrMin= 1.45D-05
 ErrMax= 1.45D-05  0.00D+00 EMaxC= 1.00D-01 BMatC= 1.08D-07 BMatP= 5.28D-07
 IDIUse=1 WtCom= 1.00D+00 WtEn= 0.00D+00
 Coeff-Com: -0.277D-02 0.395D+00 0.288D+00 0.320D+00
 Coeff:     -0.277D-02 0.395D+00 0.288D+00 0.320D+00
 Gap=     0.053 Goal=   None    Shift=    0.000
 RMSDP=1.17D-06 MaxDP=4.95D-05 DE=-9.47D-07 OVMax= 1.05D-04

 Cycle  20  Pass 1  IDiag  1:
 RMSU=  4.20D-07    CP:  1.00D+00  1.01D+00  4.85D-01  3.51D-01
 E= -893.078395521450     Delta-E=       -0.000000099459 Rises=F Damp=F
 DIIS: error= 3.07D-06 at cycle   5 NSaved=   5.
 NSaved= 5 IEnMin= 5 EnMin= -893.078395521450     IErMin= 5 ErrMin= 3.07D-06
 ErrMax= 3.07D-06  0.00D+00 EMaxC= 1.00D-01 BMatC= 2.12D-09 BMatP= 1.08D-07
 IDIUse=1 WtCom= 1.00D+00 WtEn= 0.00D+00
 Coeff-Com: -0.294D-02 0.279D+00 0.198D+00 0.232D+00 0.294D+00
 Coeff:     -0.294D-02 0.279D+00 0.198D+00 0.232D+00 0.294D+00
 Gap=     0.053 Goal=   None    Shift=    0.000
 RMSDP=2.07D-07 MaxDP=1.05D-05 DE=-9.95D-08 OVMax= 2.91D-05

 Cycle  21  Pass 1  IDiag  1:
 RMSU=  1.83D-07    CP:  1.00D+00  1.01D+00  4.80D-01  3.78D-01  8.22D-01
 E= -893.078395522939     Delta-E=       -0.000000001490 Rises=F Damp=F
 DIIS: error= 1.70D-06 at cycle   6 NSaved=   6.
 NSaved= 6 IEnMin= 6 EnMin= -893.078395522939     IErMin= 6 ErrMin= 1.70D-06
 ErrMax= 1.70D-06  0.00D+00 EMaxC= 1.00D-01 BMatC= 8.66D-10 BMatP= 2.12D-09
 IDIUse=1 WtCom= 1.00D+00 WtEn= 0.00D+00
 Coeff-Com: -0.226D-02 0.173D+00 0.117D+00 0.145D+00 0.252D+00 0.315D+00
 Coeff:     -0.226D-02 0.173D+00 0.117D+00 0.145D+00 0.252D+00 0.315D+00
 Gap=     0.053 Goal=   None    Shift=    0.000
 RMSDP=1.54D-07 MaxDP=5.45D-06 DE=-1.49D-09 OVMax= 2.93D-05

 Cycle  22  Pass 1  IDiag  1:
 RMSU=  9.32D-08    CP:  1.00D+00  1.01D+00  4.85D-01  3.78D-01  1.04D+00
                    CP:  6.05D-01
 E= -893.078395523482     Delta-E=       -0.000000000542 Rises=F Damp=F
 DIIS: error= 1.47D-06 at cycle   7 NSaved=   7.
 NSaved= 7 IEnMin= 7 EnMin= -893.078395523482     IErMin= 7 ErrMin= 1.47D-06
 ErrMax= 1.47D-06  0.00D+00 EMaxC= 1.00D-01 BMatC= 3.56D-10 BMatP= 8.66D-10
 IDIUse=1 WtCom= 1.00D+00 WtEn= 0.00D+00
 Coeff-Com:  0.803D-04-0.320D-01-0.372D-01-0.287D-01-0.674D-01 0.385D+00
 Coeff-Com:  0.780D+00
 Coeff:      0.803D-04-0.320D-01-0.372D-01-0.287D-01-0.674D-01 0.385D+00
 Coeff:      0.780D+00
 Gap=     0.053 Goal=   None    Shift=    0.000
 RMSDP=1.42D-07 MaxDP=4.72D-06 DE=-5.42D-10 OVMax= 1.90D-05

 Cycle  23  Pass 1  IDiag  1:
 RMSU=  5.60D-08    CP:  1.00D+00  1.01D+00  4.87D-01  3.98D-01  1.27D+00
                    CP:  1.04D+00  1.02D+00
 E= -893.078395524003     Delta-E=       -0.000000000522 Rises=F Damp=F
 DIIS: error= 4.50D-07 at cycle   8 NSaved=   8.
 NSaved= 8 IEnMin= 8 EnMin= -893.078395524003     IErMin= 8 ErrMin= 4.50D-07
 ErrMax= 4.50D-07  0.00D+00 EMaxC= 1.00D-01 BMatC= 5.29D-11 BMatP= 3.56D-10
 IDIUse=1 WtCom= 1.00D+00 WtEn= 0.00D+00
 Coeff-Com:  0.715D-03-0.719D-01-0.620D-01-0.626D-01-0.149D+00 0.214D+00
 Coeff-Com:  0.582D+00 0.548D+00
 Coeff:      0.715D-03-0.719D-01-0.620D-01-0.626D-01-0.149D+00 0.214D+00
 Coeff:      0.582D+00 0.548D+00
 Gap=     0.053 Goal=   None    Shift=    0.000
 RMSDP=8.37D-08 MaxDP=2.99D-06 DE=-5.22D-10 OVMax= 1.51D-05

 Cycle  24  Pass 1  IDiag  1:
 RMSU=  3.38D-08    CP:  1.00D+00  1.01D+00  4.90D-01  4.08D-01  1.40D+00
                    CP:  1.20D+00  1.31D+00  1.01D+00
 E= -893.078395524056     Delta-E=       -0.000000000053 Rises=F Damp=F
 DIIS: error= 2.56D-07 at cycle   9 NSaved=   9.
 NSaved= 9 IEnMin= 9 EnMin= -893.078395524056     IErMin= 9 ErrMin= 2.56D-07
 ErrMax= 2.56D-07  0.00D+00 EMaxC= 1.00D-01 BMatC= 2.32D-11 BMatP= 5.29D-11
 IDIUse=1 WtCom= 1.00D+00 WtEn= 0.00D+00
 Coeff-Com:  0.648D-03-0.606D-01-0.496D-01-0.524D-01-0.129D+00 0.982D-01
 Coeff-Com:  0.325D+00 0.496D+00 0.372D+00
 Coeff:      0.648D-03-0.606D-01-0.496D-01-0.524D-01-0.129D+00 0.982D-01
 Coeff:      0.325D+00 0.496D+00 0.372D+00
 Gap=     0.053 Goal=   None    Shift=    0.000
 RMSDP=3.24D-08 MaxDP=1.05D-06 DE=-5.32D-11 OVMax= 4.01D-06

 Cycle  25  Pass 1  IDiag  1:
 RMSU=  1.35D-08    CP:  1.00D+00  1.01D+00  4.91D-01  4.11D-01  1.45D+00
                    CP:  1.26D+00  1.40D+00  1.16D+00  7.13D-01
 E= -893.078395524079     Delta-E=       -0.000000000022 Rises=F Damp=F
 DIIS: error= 8.52D-08 at cycle  10 NSaved=  10.
 NSaved=10 IEnMin=10 EnMin= -893.078395524079     IErMin=10 ErrMin= 8.52D-08
 ErrMax= 8.52D-08  0.00D+00 EMaxC= 1.00D-01 BMatC= 1.30D-12 BMatP= 2.32D-11
 IDIUse=1 WtCom= 1.00D+00 WtEn= 0.00D+00
 Coeff-Com:  0.219D-03-0.187D-01-0.150D-01-0.161D-01-0.482D-01 0.222D-01
 Coeff-Com:  0.642D-01 0.195D+00 0.189D+00 0.628D+00
 Coeff:      0.219D-03-0.187D-01-0.150D-01-0.161D-01-0.482D-01 0.222D-01
 Coeff:      0.642D-01 0.195D+00 0.189D+00 0.628D+00
 Gap=     0.053 Goal=   None    Shift=    0.000
 RMSDP=9.41D-09 MaxDP=2.70D-07 DE=-2.23D-11 OVMax= 1.56D-06

 SCF Done:  E(RB3LYP) =  -893.078395524     A.U. after   25 cycles
            NFock= 25  Conv=0.94D-08     -V/T= 2.0092
 KE= 8.849477035751D+02 PE=-4.765930640545D+03 EE= 1.645631474378D+03
 Leave Link  502 at Thu Jun  3 21:36:44 2021, MaxMem=    33554432 cpu:       652.7
 (Enter /opt/app/gaussian09/e01/g09/l601.exe)
 Copying SCF densities to generalized density rwf, IOpCl= 0 IROHF=0.

 **********************************************************************

            Population analysis using the SCF density.

 **********************************************************************

 Orbital symmetries:
       Occupied  (A) (A) (A) (A) (A) (A) (A) (A) (A) (A) (A) (A)
                 (A) (A) (A) (A) (A) (A) (A) (A) (A) (A) (A) (A)
                 (A) (A) (A) (A) (A) (A) (A) (A) (A) (A) (A) (A)
                 (A) (A) (A) (A) (A) (A) (A) (A) (A) (A) (A) (A)
                 (A) (A) (A) (A) (A) (A) (A) (A) (A) (A) (A) (A)
                 (A) (A) (A) (A) (A)
       Virtual   (A) (A) (A) (A) (A) (A) (A) (A) (A) (A) (A) (A)
                 (A) (A) (A) (A) (A) (A) (A) (A) (A) (A) (A) (A)
                 (A) (A) (A) (A) (A) (A) (A) (A) (A) (A) (A) (A)
                 (A) (A) (A) (A) (A) (A) (A) (A) (A) (A) (A) (A)
                 (A) (A) (A) (A) (A) (A) (A) (A) (A) (A) (A) (A)
                 (A) (A) (A) (A) (A) (A) (A) (A) (A) (A) (A) (A)
                 (A) (A) (A) (A) (A) (A) (A) (A) (A) (A) (A) (A)
                 (A) (A) (A) (A) (A) (A) (A) (A) (A) (A) (A) (A)
                 (A) (A) (A) (A) (A) (A) (A) (A) (A) (A) (A) (A)
                 (A) (A) (A) (A) (A) (A) (A) (A) (A) (A) (A) (A)
                 (A) (A) (A) (A) (A) (A) (A) (A) (A) (A) (A) (A)
                 (A) (A) (A) (A) (A) (A) (A) (A) (A) (A) (A) (A)
                 (A) (A) (A) (A) (A) (A) (A) (A) (A) (A) (A) (A)
                 (A) (A) (A) (A) (A) (A) (A) (A) (A) (A) (A) (A)
                 (A) (A) (A) (A) (A) (A) (A) (A) (A) (A) (A) (A)
                 (A) (A) (A) (A) (A) (A) (A) (A) (A) (A) (A) (A)
                 (A) (A) (A) (A) (A) (A) (A) (A) (A) (A) (A) (A)
                 (A) (A) (A) (A) (A) (A) (A) (A) (A) (A) (A) (A)
                 (A) (A) (A) (A) (A) (A) (A) (A) (A) (A) (A) (A)
                 (A) (A) (A) (A) (A) (A)
 The electronic state is 1-A.
 Alpha  occ. eigenvalues --  -19.20002 -19.18466 -19.16407 -19.14740 -14.56216
 Alpha  occ. eigenvalues --  -10.29155 -10.28884 -10.28437 -10.25126 -10.24533
 Alpha  occ. eigenvalues --  -10.24243 -10.23788 -10.23521 -10.23295 -10.23204
 Alpha  occ. eigenvalues --  -10.22521 -10.22427 -10.22246 -10.22196  -1.24068
 Alpha  occ. eigenvalues --   -1.05250  -0.97954  -0.96222  -0.91101  -0.88811
 Alpha  occ. eigenvalues --   -0.84033  -0.82504  -0.78438  -0.78139  -0.73624
 Alpha  occ. eigenvalues --   -0.71472  -0.67323  -0.66215  -0.61458  -0.59064
 Alpha  occ. eigenvalues --   -0.57525  -0.56933  -0.54261  -0.53675  -0.52237
 Alpha  occ. eigenvalues --   -0.50229  -0.49785  -0.49250  -0.48292  -0.45359
 Alpha  occ. eigenvalues --   -0.45343  -0.44851  -0.42218  -0.41665  -0.41308
 Alpha  occ. eigenvalues --   -0.40026  -0.38987  -0.38230  -0.37989  -0.35609
 Alpha  occ. eigenvalues --   -0.35334  -0.33853  -0.32011  -0.30356  -0.28746
 Alpha  occ. eigenvalues --   -0.28435  -0.27797  -0.26955  -0.26180  -0.21100
 Alpha virt. eigenvalues --   -0.15830  -0.11587  -0.07331  -0.04874  -0.02605
 Alpha virt. eigenvalues --    0.03396   0.03810   0.07584   0.08401   0.11541
 Alpha virt. eigenvalues --    0.11984   0.12438   0.13535   0.15864   0.15962
 Alpha virt. eigenvalues --    0.16947   0.17580   0.19689   0.20002   0.22282
 Alpha virt. eigenvalues --    0.23895   0.24216   0.27055   0.29198   0.29419
 Alpha virt. eigenvalues --    0.29663   0.31255   0.31424   0.34025   0.35277
 Alpha virt. eigenvalues --    0.39476   0.43029   0.43191   0.45219   0.46780
 Alpha virt. eigenvalues --    0.48000   0.49110   0.49262   0.49785   0.51284
 Alpha virt. eigenvalues --    0.52668   0.52894   0.53236   0.53374   0.54739
 Alpha virt. eigenvalues --    0.55405   0.56111   0.56582   0.57794   0.58245
 Alpha virt. eigenvalues --    0.58858   0.59693   0.60034   0.60276   0.60486
 Alpha virt. eigenvalues --    0.61512   0.61896   0.64942   0.65376   0.67336
 Alpha virt. eigenvalues --    0.67582   0.69264   0.71807   0.74020   0.75463
 Alpha virt. eigenvalues --    0.76497   0.78044   0.78851   0.79811   0.80094
 Alpha virt. eigenvalues --    0.80419   0.81095   0.82560   0.83027   0.84367
 Alpha virt. eigenvalues --    0.85809   0.87343   0.87844   0.88625   0.90044
 Alpha virt. eigenvalues --    0.90637   0.92831   0.93755   0.94702   0.97009
 Alpha virt. eigenvalues --    0.97710   0.98408   1.01186   1.01417   1.02131
 Alpha virt. eigenvalues --    1.04519   1.05869   1.06982   1.07066   1.09412
 Alpha virt. eigenvalues --    1.10806   1.13237   1.14320   1.15546   1.16063
 Alpha virt. eigenvalues --    1.18708   1.19438   1.21029   1.22452   1.23100
 Alpha virt. eigenvalues --    1.25352   1.26556   1.28917   1.31260   1.31689
 Alpha virt. eigenvalues --    1.32953   1.33623   1.35638   1.36397   1.40001
 Alpha virt. eigenvalues --    1.41291   1.42274   1.42949   1.43480   1.44615
 Alpha virt. eigenvalues --    1.45094   1.45853   1.47107   1.47545   1.49750
 Alpha virt. eigenvalues --    1.55195   1.57686   1.59544   1.62161   1.67729
 Alpha virt. eigenvalues --    1.69150   1.70318   1.72349   1.73497   1.74782
 Alpha virt. eigenvalues --    1.75397   1.76963   1.77880   1.78681   1.79903
 Alpha virt. eigenvalues --    1.82044   1.82376   1.83550   1.84722   1.85950
 Alpha virt. eigenvalues --    1.87630   1.87849   1.88711   1.89562   1.90462
 Alpha virt. eigenvalues --    1.92767   1.94581   1.95251   1.96376   1.98072
 Alpha virt. eigenvalues --    2.00413   2.01661   2.02715   2.04882   2.07663
 Alpha virt. eigenvalues --    2.09602   2.09859   2.11166   2.12736   2.13632
 Alpha virt. eigenvalues --    2.16065   2.17518   2.17630   2.21341   2.23256
 Alpha virt. eigenvalues --    2.24030   2.25013   2.26646   2.27255   2.28381
 Alpha virt. eigenvalues --    2.30833   2.31862   2.34805   2.38986   2.41141
 Alpha virt. eigenvalues --    2.43181   2.44920   2.45973   2.48131   2.49294
 Alpha virt. eigenvalues --    2.51628   2.53973   2.58848   2.59873   2.63010
 Alpha virt. eigenvalues --    2.63093   2.64696   2.65007   2.66440   2.67213
 Alpha virt. eigenvalues --    2.68562   2.70608   2.72936   2.73931   2.79435
 Alpha virt. eigenvalues --    2.80990   2.83059   2.84372   2.84989   2.91846
 Alpha virt. eigenvalues --    2.93520   2.97125   2.97683   3.00782   3.05054
 Alpha virt. eigenvalues --    3.12066   3.18856   3.28622   3.43618   3.48857
 Alpha virt. eigenvalues --    3.75169   3.85615   3.97968   3.98631   4.04560
 Alpha virt. eigenvalues --    4.05243   4.08072   4.08726   4.11344   4.12878
 Alpha virt. eigenvalues --    4.18330   4.29622   4.31516   4.33157   4.38654
 Alpha virt. eigenvalues --    4.50682   4.60917   4.65574   4.93058
          Condensed to atoms (all electrons):
               1          2          3          4          5          6
     1  C    4.953535   0.469571  -0.017377  -0.034839  -0.018940   0.481318
     2  C    0.469571   5.108433   0.439560  -0.061659  -0.063564  -0.016808
     3  C   -0.017377   0.439560   5.208889   0.403102  -0.059492  -0.036046
     4  C   -0.034839  -0.061659   0.403102   5.088887   0.436917  -0.015518
     5  C   -0.018940  -0.063564  -0.059492   0.436917   5.098304   0.479321
     6  C    0.481318  -0.016808  -0.036046  -0.015518   0.479321   4.942969
     7  C    0.010649  -0.079130   0.122388   0.049318   0.014387  -0.000975
     8  C   -0.000841   0.015075   0.044030   0.209506  -0.078264   0.009484
     9  C    0.000111  -0.002585  -0.088666   0.002106   0.020913  -0.000393
    10  C   -0.000427   0.019218  -0.002606  -0.070495  -0.002624   0.000076
    11  C   -0.000002  -0.000342   0.018274  -0.001631   0.000005   0.000001
    12  H   -0.000000  -0.000015   0.000967  -0.000026   0.000000   0.000000
    13  C   -0.000000  -0.000003  -0.000465   0.000130   0.000001  -0.000000
    14  C   -0.000000   0.000001   0.000100  -0.000499  -0.000001   0.000000
    15  C    0.000000  -0.000000  -0.001678   0.010778  -0.000132   0.000001
    16  H    0.360192  -0.034018   0.002524   0.000846   0.003639  -0.039110
    17  H   -0.042536   0.355361  -0.037964   0.004139   0.000364   0.004118
    18  H    0.004254   0.000231   0.003712  -0.040871   0.358157  -0.042135
    19  H   -0.038963   0.003604   0.000847   0.002503  -0.033556   0.359804
    20  H   -0.000000  -0.000000   0.000003  -0.000000   0.000000   0.000000
    21  H    0.000000   0.000000  -0.000000   0.000002  -0.000000   0.000000
    22  O    0.000002  -0.000041   0.003572  -0.082759  -0.001490   0.000872
    23  O    0.001089  -0.000664  -0.103296   0.004269  -0.000031  -0.000005
    24  N    0.000000  -0.000000  -0.000017   0.000018   0.000016   0.000000
    25  O    0.000000   0.000000  -0.000000   0.000003  -0.000000  -0.000000
    26  O   -0.000000  -0.000000  -0.000046  -0.000596   0.000187   0.000001
               7          8          9         10         11         12
     1  C    0.010649  -0.000841   0.000111  -0.000427  -0.000002  -0.000000
     2  C   -0.079130   0.015075  -0.002585   0.019218  -0.000342  -0.000015
     3  C    0.122388   0.044030  -0.088666  -0.002606   0.018274   0.000967
     4  C    0.049318   0.209506   0.002106  -0.070495  -0.001631  -0.000026
     5  C    0.014387  -0.078264   0.020913  -0.002624   0.000005   0.000000
     6  C   -0.000975   0.009484  -0.000393   0.000076   0.000001   0.000000
     7  C    5.207981  -0.120193   0.066845   0.110975  -0.076422  -0.006434
     8  C   -0.120193   5.277010   0.077497   0.029161   0.016635  -0.000071
     9  C    0.066845   0.077497   5.350845   0.351703  -0.055870   0.004203
    10  C    0.110975   0.029161   0.351703   5.251879   0.422108  -0.038441
    11  C   -0.076422   0.016635  -0.055870   0.422108   5.121316   0.356457
    12  H   -0.006434  -0.000071   0.004203  -0.038441   0.356457   0.516560
    13  C    0.011385  -0.002364  -0.040377  -0.003304   0.450462  -0.040956
    14  C   -0.001010   0.013389  -0.027735  -0.052685  -0.012655   0.004150
    15  C    0.014171  -0.088324   0.346130  -0.018749  -0.068442   0.000294
    16  H   -0.000160   0.000014  -0.000001   0.000003  -0.000000  -0.000000
    17  H   -0.006744  -0.000161   0.000005   0.000828  -0.000019  -0.000009
    18  H   -0.000072  -0.006497   0.001191  -0.000060  -0.000000  -0.000000
    19  H    0.000013  -0.000169   0.000003  -0.000001  -0.000000  -0.000000
    20  H   -0.000166   0.000008   0.000984   0.002223  -0.032476  -0.004026
    21  H    0.000007  -0.000102   0.005060   0.000427   0.003529  -0.000119
    22  O   -0.000438   0.376779  -0.092341   0.004776   0.000005   0.000000
    23  O    0.453861  -0.000449   0.004512  -0.102618   0.000168   0.017499
    24  N   -0.000047  -0.022127  -0.030580   0.005188  -0.000253   0.000003
    25  O    0.000000   0.000037   0.004719   0.000012  -0.000022  -0.000000
    26  O    0.000049  -0.005454  -0.003425   0.000042  -0.000030  -0.000000
              13         14         15         16         17         18
     1  C   -0.000000  -0.000000   0.000000   0.360192  -0.042536   0.004254
     2  C   -0.000003   0.000001  -0.000000  -0.034018   0.355361   0.000231
     3  C   -0.000465   0.000100  -0.001678   0.002524  -0.037964   0.003712
     4  C    0.000130  -0.000499   0.010778   0.000846   0.004139  -0.040871
     5  C    0.000001  -0.000001  -0.000132   0.003639   0.000364   0.358157
     6  C   -0.000000   0.000000   0.000001  -0.039110   0.004118  -0.042135
     7  C    0.011385  -0.001010   0.014171  -0.000160  -0.006744  -0.000072
     8  C   -0.002364   0.013389  -0.088324   0.000014  -0.000161  -0.006497
     9  C   -0.040377  -0.027735   0.346130  -0.000001   0.000005   0.001191
    10  C   -0.003304  -0.052685  -0.018749   0.000003   0.000828  -0.000060
    11  C    0.450462  -0.012655  -0.068442  -0.000000  -0.000019  -0.000000
    12  H   -0.040956   0.004150   0.000294  -0.000000  -0.000009  -0.000000
    13  C    4.988047   0.430188   0.004860   0.000000  -0.000000   0.000000
    14  C    0.430188   5.085776   0.478325   0.000000  -0.000000   0.000000
    15  C    0.004860   0.478325   5.127449  -0.000000   0.000001   0.000020
    16  H    0.000000   0.000000  -0.000000   0.561389  -0.004476  -0.000142
    17  H   -0.000000  -0.000000   0.000001  -0.004476   0.527072   0.000013
    18  H    0.000000   0.000000   0.000020  -0.000142   0.000013   0.530087
    19  H    0.000000  -0.000000  -0.000000  -0.004337  -0.000143  -0.004529
    20  H    0.361707  -0.035853   0.002997  -0.000000  -0.000000   0.000000
    21  H   -0.034531   0.345718  -0.024485   0.000000  -0.000000  -0.000000
    22  O   -0.000024   0.000079  -0.006792   0.000000   0.000000   0.015006
    23  O    0.001121  -0.000002  -0.000030  -0.000004   0.016853   0.000000
    24  N    0.004485  -0.062008   0.122247   0.000000  -0.000000   0.000007
    25  O    0.000750   0.001484  -0.069522   0.000000   0.000000  -0.000000
    26  O   -0.000078   0.001834  -0.072280   0.000000   0.000000   0.000087
              19         20         21         22         23         24
     1  C   -0.038963  -0.000000   0.000000   0.000002   0.001089   0.000000
     2  C    0.003604  -0.000000   0.000000  -0.000041  -0.000664  -0.000000
     3  C    0.000847   0.000003  -0.000000   0.003572  -0.103296  -0.000017
     4  C    0.002503  -0.000000   0.000002  -0.082759   0.004269   0.000018
     5  C   -0.033556   0.000000  -0.000000  -0.001490  -0.000031   0.000016
     6  C    0.359804   0.000000   0.000000   0.000872  -0.000005   0.000000
     7  C    0.000013  -0.000166   0.000007  -0.000438   0.453861  -0.000047
     8  C   -0.000169   0.000008  -0.000102   0.376779  -0.000449  -0.022127
     9  C    0.000003   0.000984   0.005060  -0.092341   0.004512  -0.030580
    10  C   -0.000001   0.002223   0.000427   0.004776  -0.102618   0.005188
    11  C   -0.000000  -0.032476   0.003529   0.000005   0.000168  -0.000253
    12  H   -0.000000  -0.004026  -0.000119   0.000000   0.017499   0.000003
    13  C    0.000000   0.361707  -0.034531  -0.000024   0.001121   0.004485
    14  C   -0.000000  -0.035853   0.345718   0.000079  -0.000002  -0.062008
    15  C   -0.000000   0.002997  -0.024485  -0.006792  -0.000030   0.122247
    16  H   -0.004337  -0.000000   0.000000   0.000000  -0.000004   0.000000
    17  H   -0.000143  -0.000000  -0.000000   0.000000   0.016853  -0.000000
    18  H   -0.004529   0.000000  -0.000000   0.015006   0.000000   0.000007
    19  H    0.560446   0.000000  -0.000000  -0.000004   0.000000  -0.000000
    20  H    0.000000   0.542704  -0.004115  -0.000000  -0.000003  -0.000069
    21  H   -0.000000  -0.004115   0.513964   0.000002   0.000000  -0.009939
    22  O   -0.000004  -0.000000   0.000002   8.397784   0.000000  -0.026731
    23  O    0.000000  -0.000003   0.000000   0.000000   8.255106   0.000000
    24  N   -0.000000  -0.000069  -0.009939  -0.026731   0.000000   6.289247
    25  O   -0.000000   0.000002   0.013663   0.000405  -0.000000   0.261441
    26  O   -0.000000   0.000001   0.000318  -0.104165  -0.000000   0.196630
              25         26
     1  C    0.000000  -0.000000
     2  C    0.000000  -0.000000
     3  C   -0.000000  -0.000046
     4  C    0.000003  -0.000596
     5  C   -0.000000   0.000187
     6  C   -0.000000   0.000001
     7  C    0.000000   0.000049
     8  C    0.000037  -0.005454
     9  C    0.004719  -0.003425
    10  C    0.000012   0.000042
    11  C   -0.000022  -0.000030
    12  H   -0.000000  -0.000000
    13  C    0.000750  -0.000078
    14  C    0.001484   0.001834
    15  C   -0.069522  -0.072280
    16  H    0.000000   0.000000
    17  H    0.000000   0.000000
    18  H   -0.000000   0.000087
    19  H   -0.000000  -0.000000
    20  H    0.000002   0.000001
    21  H    0.013663   0.000318
    22  O    0.000405  -0.104165
    23  O   -0.000000  -0.000000
    24  N    0.261441   0.196630
    25  O    8.251781  -0.115232
    26  O   -0.115232   8.336220
 Mulliken charges:
               1
     1  C   -0.126797
     2  C   -0.152225
     3  C    0.099685
     4  C    0.096370
     5  C   -0.154117
     6  C   -0.126974
     7  C    0.229762
     8  C    0.256391
     9  C    0.105144
    10  C    0.093391
    11  C   -0.140795
    12  H    0.189963
    13  C   -0.131033
    14  C   -0.168596
    15  C    0.243161
    16  H    0.153640
    17  H    0.183298
    18  H    0.181538
    19  H    0.154483
    20  H    0.166079
    21  H    0.190603
    22  O   -0.484496
    23  O   -0.547377
    24  N    0.272489
    25  O   -0.349522
    26  O   -0.234063
 Sum of Mulliken charges =  -0.00000
 Mulliken charges with hydrogens summed into heavy atoms:
               1
     1  C    0.026844
     2  C    0.031073
     3  C    0.099685
     4  C    0.096370
     5  C    0.027421
     6  C    0.027509
     7  C    0.229762
     8  C    0.256391
     9  C    0.105144
    10  C    0.093391
    11  C    0.049168
    13  C    0.035046
    14  C    0.022007
    15  C    0.243161
    22  O   -0.484496
    23  O   -0.547377
    24  N    0.272489
    25  O   -0.349522
    26  O   -0.234063
 Electronic spatial extent (au):  <R**2>=           4509.6416
 Charge=             -0.0000 electrons
 Dipole moment (field-independent basis, Debye):
    X=             -1.9670    Y=              1.6020    Z=             -0.5235  Tot=              2.5903
 Quadrupole moment (field-independent basis, Debye-Ang):
   XX=            -93.6080   YY=           -112.3814   ZZ=           -106.4077
   XY=             23.3946   XZ=             -0.4502   YZ=              1.0123
 Traceless Quadrupole moment (field-independent basis, Debye-Ang):
   XX=             10.5244   YY=             -8.2490   ZZ=             -2.2754
   XY=             23.3946   XZ=             -0.4502   YZ=              1.0123
 Octapole moment (field-independent basis, Debye-Ang**2):
  XXX=            -68.8922  YYY=            -17.8957  ZZZ=              2.1467  XYY=             16.5823
  XXY=             15.4373  XXZ=              1.5840  XZZ=             12.5432  YZZ=             -6.0088
  YYZ=             -3.1411  XYZ=              2.4649
 Hexadecapole moment (field-independent basis, Debye-Ang**3):
 XXXX=          -3585.6649 YYYY=          -1852.9867 ZZZZ=           -119.7828 XXXY=            187.9732
 XXXZ=             12.6057 YYYX=            133.3720 YYYZ=              3.2188 ZZZX=              1.8287
 ZZZY=             -1.9940 XXYY=           -927.4314 XXZZ=           -702.0660 YYZZ=           -336.3910
 XXYZ=              3.8549 YYXZ=             -2.2776 ZZXY=            -34.3199
 N-N= 1.342273067068D+03 E-N=-4.765930634090D+03  KE= 8.849477035751D+02
 No NMR shielding tensors so no spin-rotation constants.
 Leave Link  601 at Thu Jun  3 21:36:45 2021, MaxMem=    33554432 cpu:         0.3
 (Enter /opt/app/gaussian09/e01/g09/l701.exe)
 Compute integral first derivatives.
 ... and contract with generalized density number  0.
 Leave Link  701 at Thu Jun  3 21:36:45 2021, MaxMem=    33554432 cpu:         0.2
 (Enter /opt/app/gaussian09/e01/g09/l702.exe)
 L702 exits ... SP integral derivatives will be done elsewhere.
 Leave Link  702 at Thu Jun  3 21:36:45 2021, MaxMem=    33554432 cpu:         0.0
 (Enter /opt/app/gaussian09/e01/g09/l703.exe)
 Compute integral first derivatives, UseDBF=F ICtDFT=           0.
 Integral derivatives from FoFJK, PRISM(SPDF).
 Calling FoFJK, ICntrl=      2127 FMM=F ISym2X=0 I1Cent= 0 IOpClX= 0 NMat=1 NMatS=1 NMatT=0.
 FoFJK:  IHMeth= 1 ICntrl=    2127 DoSepK=F KAlg= 0 I1Cent=   0 FoldK=F
 IRaf=         0 NMat=   1 IRICut=       1 DoRegI=T DoRafI=F ISym2E= 0.
 FoFCou: FMM=F IPFlag=           0 FMFlag=      100000 FMFlg1=         800
         NFxFlg=           0 DoJE=F BraDBF=F KetDBF=F FulRan=T
         wScrn=  0.000000 ICntrl=    2127 IOpCl=  0 I1Cent=           0 NGrid=           0
         NMat0=    1 NMatS0=      1 NMatT0=    0 NMatD0=    1 NMtDS0=    0 NMtDT0=    0
 Symmetry not used in FoFCou.
 Leave Link  703 at Thu Jun  3 21:38:32 2021, MaxMem=    33554432 cpu:       107.5
 (Enter /opt/app/gaussian09/e01/g09/l716.exe)
 Dipole        =-7.73889692D-01 6.30259310D-01-2.05973988D-01
 ***** Axes restored to original set *****
 -------------------------------------------------------------------
 Center     Atomic                   Forces (Hartrees/Bohr)
 Number     Number              X              Y              Z
 -------------------------------------------------------------------
      1        6          -0.026251911    0.003494035   -0.000044822
      2        6           0.028770332   -0.000008191    0.000886039
      3        6          -0.052012808   -0.007518273    0.000323649
      4        6          -0.030168835   -0.038762575   -0.006305003
      5        6           0.012379072    0.024803550   -0.000186130
      6        6          -0.009054102   -0.024282029   -0.000624316
      7        6           0.083492639   -0.155518372    0.000246811
      8        6          -0.089289766    0.129136358    0.004766354
      9        6           0.044251994    0.004910077    0.007253490
     10        6           0.034720736    0.050280353   -0.000955673
     11        6          -0.011662658   -0.024284059   -0.000141032
     12        1          -0.007852877    0.008242679   -0.000073169
     13        6           0.004976389    0.020887097   -0.002334608
     14        6           0.026389110    0.006982010    0.000375050
     15        6          -0.003474875   -0.032723033    0.033339268
     16        1           0.006172540    0.006931802    0.000097678
     17        1          -0.003489812    0.010669413    0.000154125
     18        1           0.007103853   -0.008408576    0.000475920
     19        1           0.009053955    0.002178406   -0.000112741
     20        1          -0.009825501   -0.000623515    0.000330232
     21        1          -0.009061098   -0.006910789    0.001344661
     22        8           0.020539179   -0.149965779    0.034445389
     23        8          -0.067397141    0.119503065   -0.000468528
     24        7           0.036277370    0.011562872   -0.104835677
     25        8           0.015269627    0.018473067    0.054452051
     26        8          -0.009855411    0.030950408   -0.022409018
 -------------------------------------------------------------------
 Cartesian Forces:  Max     0.155518372 RMS     0.041625936
 Leave Link  716 at Thu Jun  3 21:38:33 2021, MaxMem=    33554432 cpu:         0.0
 (Enter /opt/app/gaussian09/e01/g09/l103.exe)

 GradGradGradGradGradGradGradGradGradGradGradGradGradGradGradGradGradGrad
 Berny optimization.
 FormGI is forming the generalized inverse of G from B-inverse, IUseBI=4.
 Internal  Forces:  Max     0.139810793 RMS     0.032942343
 Search for a local minimum.
 Step number   1 out of a maximum of  151
 All quantities printed in internal units (Hartrees-Bohrs-Radians)
 RMS Force = .32942D-01 SwitMx=.10000D-02 MixMth= 1
 Mixed Optimization -- RFO/linear search
 Second derivative matrix not updated -- first step.
 ITU=  0
     Eigenvalues ---    0.00766   0.01682   0.01755   0.01765   0.01770
     Eigenvalues ---    0.01819   0.01820   0.01906   0.01979   0.02000
     Eigenvalues ---    0.02009   0.02025   0.02100   0.02100   0.02100
     Eigenvalues ---    0.02119   0.02151   0.02155   0.02215   0.02225
     Eigenvalues ---    0.02348   0.02351   0.05610   0.16000   0.16000
     Eigenvalues ---    0.16000   0.16000   0.16000   0.16000   0.16000
     Eigenvalues ---    0.22000   0.22096   0.22553   0.23502   0.24493
     Eigenvalues ---    0.24910   0.25000   0.25000   0.25000   0.25000
     Eigenvalues ---    0.25000   0.25000   0.25000   0.25000   0.33629
     Eigenvalues ---    0.33632   0.33632   0.33681   0.33681   0.33683
     Eigenvalues ---    0.33683   0.35740   0.35788   0.38250   0.38577
     Eigenvalues ---    0.38718   0.40223   0.40749   0.40989   0.40989
     Eigenvalues ---    0.41161   0.41414   0.42102   0.44932   0.45767
     Eigenvalues ---    0.45768   0.49856   0.49906   0.51296   0.51336
     Eigenvalues ---    0.87992   0.87992
 RFO step:  Lambda=-2.78613163D-01 EMin= 7.65814437D-03
 Linear search not attempted -- first point.
 Maximum step size (   0.300) exceeded in Quadratic search.
    -- Step size scaled by   0.475
 Iteration  1 RMS(Cart)=  0.12542470 RMS(Int)=  0.00565878
[...]
                 (A) (A) (A) (A) (A) (A) (A) (A) (A) (A) (A) (A)
                 (A) (A) (A) (A) (A) (A) (A) (A) (A) (A) (A) (A)
                 (A) (A) (A) (A) (A) (A) (A) (A) (A) (A) (A) (A)
                 (A) (A) (A) (A) (A) (A) (A) (A) (A) (A) (A) (A)
                 (A) (A) (A) (A) (A) (A) (A) (A) (A) (A) (A) (A)
                 (A) (A) (A) (A) (A) (A) (A) (A) (A) (A) (A) (A)
                 (A) (A) (A) (A) (A) (A) (A) (A) (A) (A) (A) (A)
                 (A) (A) (A) (A) (A) (A) (A) (A) (A) (A) (A) (A)
                 (A) (A) (A) (A) (A) (A) (A) (A) (A) (A) (A) (A)
                 (A) (A) (A) (A) (A) (A) (A) (A) (A) (A) (A) (A)
                 (A) (A) (A) (A) (A) (A) (A) (A) (A) (A) (A) (A)
                 (A) (A) (A) (A) (A) (A) (A) (A) (A) (A) (A) (A)
                 (A) (A) (A) (A) (A) (A) (A) (A) (A) (A) (A) (A)
                 (A) (A) (A) (A) (A) (A) (A) (A) (A) (A) (A) (A)
                 (A) (A) (A) (A) (A) (A) (A) (A) (A) (A) (A) (A)
                 (A) (A) (A) (A) (A) (A) (A) (A) (A) (A) (A) (A)
                 (A) (A) (A) (A) (A) (A) (A) (A) (A) (A) (A) (A)
                 (A) (A) (A) (A) (A) (A) (A) (A) (A) (A) (A) (A)
                 (A) (A) (A) (A) (A) (A)
 The electronic state is 1-A.
 Alpha  occ. eigenvalues --  -19.18824 -19.18773 -19.16212 -19.16192 -14.57758
 Alpha  occ. eigenvalues --  -10.30291 -10.30094 -10.27501 -10.24644 -10.23947
 Alpha  occ. eigenvalues --  -10.23862 -10.23465 -10.22883 -10.22822 -10.22742
 Alpha  occ. eigenvalues --  -10.22268 -10.22215 -10.21940 -10.21885  -1.23149
 Alpha  occ. eigenvalues --   -1.06367  -1.06050  -1.05911  -0.91178  -0.88861
 Alpha  occ. eigenvalues --   -0.82811  -0.81711  -0.78064  -0.78028  -0.72189
 Alpha  occ. eigenvalues --   -0.69455  -0.66833  -0.65511  -0.61183  -0.58502
 Alpha  occ. eigenvalues --   -0.57261  -0.56633  -0.54064  -0.52783  -0.51459
 Alpha  occ. eigenvalues --   -0.50539  -0.49512  -0.49327  -0.48316  -0.45790
 Alpha  occ. eigenvalues --   -0.45435  -0.45065  -0.45008  -0.44001  -0.41612
 Alpha  occ. eigenvalues --   -0.41149  -0.40675  -0.40170  -0.38354  -0.37236
 Alpha  occ. eigenvalues --   -0.37194  -0.31806  -0.31297  -0.30702  -0.29525
 Alpha  occ. eigenvalues --   -0.28385  -0.28068  -0.27857  -0.27577  -0.27178
 Alpha virt. eigenvalues --   -0.11818  -0.08258  -0.06280  -0.04003  -0.02700
 Alpha virt. eigenvalues --    0.03679   0.04048   0.07181   0.08813   0.12248
 Alpha virt. eigenvalues --    0.12948   0.13736   0.14265   0.15922   0.16711
 Alpha virt. eigenvalues --    0.16952   0.18965   0.19349   0.22313   0.23788
 Alpha virt. eigenvalues --    0.24235   0.25186   0.26246   0.28099   0.29302
 Alpha virt. eigenvalues --    0.31392   0.31663   0.32541   0.33174   0.36351
 Alpha virt. eigenvalues --    0.38259   0.40443   0.41485   0.45292   0.46676
 Alpha virt. eigenvalues --    0.47676   0.49429   0.49625   0.50365   0.51284
 Alpha virt. eigenvalues --    0.52340   0.52784   0.53338   0.54121   0.54771
 Alpha virt. eigenvalues --    0.56573   0.56777   0.57241   0.57759   0.58582
 Alpha virt. eigenvalues --    0.58767   0.59105   0.60320   0.60650   0.60895
 Alpha virt. eigenvalues --    0.61602   0.63625   0.64818   0.65391   0.67559
 Alpha virt. eigenvalues --    0.69658   0.69966   0.71784   0.73355   0.74956
 Alpha virt. eigenvalues --    0.75059   0.76756   0.78889   0.79849   0.80021
 Alpha virt. eigenvalues --    0.80530   0.80935   0.81512   0.82501   0.84189
 Alpha virt. eigenvalues --    0.84756   0.85950   0.86492   0.87055   0.88235
 Alpha virt. eigenvalues --    0.88657   0.90562   0.92429   0.94615   0.95476
 Alpha virt. eigenvalues --    0.97320   0.99072   1.00061   1.00528   1.01939
 Alpha virt. eigenvalues --    1.02376   1.03701   1.04284   1.06073   1.08108
 Alpha virt. eigenvalues --    1.08786   1.09965   1.11444   1.12666   1.15664
 Alpha virt. eigenvalues --    1.16287   1.17834   1.20760   1.21284   1.22607
 Alpha virt. eigenvalues --    1.23565   1.25088   1.28221   1.31690   1.32349
 Alpha virt. eigenvalues --    1.33717   1.35564   1.36043   1.37015   1.39794
 Alpha virt. eigenvalues --    1.40730   1.41647   1.41983   1.42952   1.44508
 Alpha virt. eigenvalues --    1.45255   1.45846   1.46847   1.47497   1.50335
 Alpha virt. eigenvalues --    1.55389   1.56762   1.60760   1.62668   1.63749
 Alpha virt. eigenvalues --    1.66967   1.69065   1.72250   1.73493   1.74311
 Alpha virt. eigenvalues --    1.75154   1.76340   1.76624   1.77995   1.79272
 Alpha virt. eigenvalues --    1.80456   1.81183   1.82025   1.82727   1.84467
 Alpha virt. eigenvalues --    1.85980   1.87817   1.89155   1.89830   1.90455
 Alpha virt. eigenvalues --    1.90611   1.92039   1.95650   1.97485   1.99734
 Alpha virt. eigenvalues --    1.99954   2.01504   2.02285   2.03525   2.04296
 Alpha virt. eigenvalues --    2.08082   2.09670   2.10979   2.11348   2.12154
 Alpha virt. eigenvalues --    2.13397   2.15059   2.18609   2.19450   2.21238
 Alpha virt. eigenvalues --    2.24040   2.24875   2.25763   2.26922   2.27153
 Alpha virt. eigenvalues --    2.27745   2.32161   2.35846   2.38286   2.39557
 Alpha virt. eigenvalues --    2.44714   2.47639   2.49931   2.52523   2.53471
 Alpha virt. eigenvalues --    2.54557   2.56025   2.58171   2.61628   2.63558
 Alpha virt. eigenvalues --    2.64974   2.65637   2.66926   2.70499   2.70775
 Alpha virt. eigenvalues --    2.72393   2.72951   2.75266   2.75836   2.80760
 Alpha virt. eigenvalues --    2.82265   2.83075   2.86272   2.88405   2.89956
 Alpha virt. eigenvalues --    2.94090   2.97878   2.98928   3.01849   3.04068
 Alpha virt. eigenvalues --    3.09810   3.16740   3.28319   3.40463   3.47364
 Alpha virt. eigenvalues --    3.78579   3.83581   3.89331   3.94297   3.99356
 Alpha virt. eigenvalues --    4.06069   4.06404   4.10311   4.10848   4.12913
 Alpha virt. eigenvalues --    4.18051   4.31546   4.32145   4.36789   4.39984
 Alpha virt. eigenvalues --    4.59470   4.63882   4.70936   4.89970
          Condensed to atoms (all electrons):
               1          2          3          4          5          6
     1  C    4.912621   0.479997  -0.018723  -0.035787  -0.020748   0.514844
     2  C    0.479997   5.074104   0.462359  -0.058497  -0.058309  -0.020788
     3  C   -0.018723   0.462359   5.154582   0.445437  -0.055268  -0.036110
     4  C   -0.035787  -0.058497   0.445437   5.136971   0.467535  -0.018900
     5  C   -0.020748  -0.058309  -0.055268   0.467535   5.062230   0.480488
     6  C    0.514844  -0.020788  -0.036110  -0.018900   0.480488   4.912299
     7  C    0.007008  -0.057494   0.208683   0.008982   0.009312  -0.000444
     8  C   -0.000454   0.009555   0.005849   0.226623  -0.056112   0.006940
     9  C    0.000035  -0.001576  -0.041251  -0.071053   0.014401  -0.000241
    10  C   -0.000238   0.014600  -0.059423  -0.037038  -0.001402   0.000034
    11  C   -0.000001  -0.000335   0.014001  -0.000957   0.000013   0.000001
    12  H   -0.000000  -0.000011   0.000905  -0.000021   0.000000   0.000000
    13  C   -0.000000  -0.000002  -0.000250   0.000023   0.000001  -0.000000
    14  C    0.000000   0.000001   0.000011  -0.000079  -0.000002  -0.000000
    15  C    0.000000   0.000008  -0.000736   0.008976  -0.000238  -0.000000
    16  H    0.362372  -0.037064   0.002825   0.000914   0.003826  -0.040119
    17  H   -0.041732   0.356689  -0.040667   0.004855   0.000385   0.004098
    18  H    0.004035   0.000408   0.004414  -0.039377   0.358150  -0.041656
    19  H   -0.040320   0.003844   0.000907   0.002873  -0.036740   0.362343
    20  H   -0.000000  -0.000000   0.000002  -0.000000   0.000000   0.000000
    21  H    0.000000   0.000000  -0.000000   0.000003  -0.000000  -0.000000
    22  O   -0.000007  -0.000057   0.003542  -0.097800   0.001837   0.000832
    23  O    0.000861   0.002565  -0.104206   0.004157  -0.000063  -0.000006
    24  N   -0.000000  -0.000000   0.000005  -0.000135  -0.000001   0.000000
    25  O    0.000000  -0.000000  -0.000000  -0.000005   0.000000   0.000000
    26  O   -0.000000   0.000000  -0.000004  -0.000154   0.000009   0.000000
               7          8          9         10         11         12
     1  C    0.007008  -0.000454   0.000035  -0.000238  -0.000001  -0.000000
     2  C   -0.057494   0.009555  -0.001576   0.014600  -0.000335  -0.000011
     3  C    0.208683   0.005849  -0.041251  -0.059423   0.014001   0.000905
     4  C    0.008982   0.226623  -0.071053  -0.037038  -0.000957  -0.000021
     5  C    0.009312  -0.056112   0.014401  -0.001402   0.000013   0.000000
     6  C   -0.000444   0.006940  -0.000241   0.000034   0.000001   0.000000
     7  C    4.783946  -0.053656   0.018228   0.196772  -0.049008  -0.008925
     8  C   -0.053656   4.819244   0.173335  -0.005158   0.009092  -0.000073
     9  C    0.018228   0.173335   5.242388   0.405848  -0.063482   0.004870
    10  C    0.196772  -0.005158   0.405848   5.228058   0.459767  -0.040545
    11  C   -0.049008   0.009092  -0.063482   0.459767   5.066597   0.357511
    12  H   -0.008925  -0.000073   0.004870  -0.040545   0.357511   0.528794
    13  C    0.006881  -0.001123  -0.044352  -0.004848   0.466273  -0.041041
    14  C   -0.000084   0.007788  -0.030145  -0.044620  -0.025262   0.004165
    15  C    0.008004  -0.053825   0.428415  -0.022566  -0.056738   0.000337
    16  H   -0.000134   0.000010  -0.000000   0.000002  -0.000000  -0.000000
    17  H   -0.008851  -0.000114  -0.000007   0.000781  -0.000011  -0.000009
    18  H   -0.000107  -0.008278   0.000932  -0.000028  -0.000000  -0.000000
    19  H    0.000010  -0.000131   0.000003  -0.000000   0.000000  -0.000000
    20  H   -0.000136   0.000010   0.001263   0.002401  -0.035222  -0.003734
    21  H    0.000006  -0.000042   0.004451   0.000420   0.003935  -0.000125
    22  O   -0.000117   0.573814  -0.100733   0.003485  -0.000033   0.000000
    23  O    0.579879  -0.000153   0.004382  -0.106205   0.002166   0.017796
    24  N   -0.000059  -0.013624  -0.028145   0.005068   0.000055   0.000004
    25  O    0.000001   0.000485  -0.000055  -0.000107  -0.000014  -0.000000
    26  O    0.000004   0.001123   0.000287  -0.000019  -0.000007  -0.000000
              13         14         15         16         17         18
     1  C   -0.000000   0.000000   0.000000   0.362372  -0.041732   0.004035
     2  C   -0.000002   0.000001   0.000008  -0.037064   0.356689   0.000408
     3  C   -0.000250   0.000011  -0.000736   0.002825  -0.040667   0.004414
     4  C    0.000023  -0.000079   0.008976   0.000914   0.004855  -0.039377
     5  C    0.000001  -0.000002  -0.000238   0.003826   0.000385   0.358150
     6  C   -0.000000  -0.000000  -0.000000  -0.040119   0.004098  -0.041656
     7  C    0.006881  -0.000084   0.008004  -0.000134  -0.008851  -0.000107
     8  C   -0.001123   0.007788  -0.053825   0.000010  -0.000114  -0.008278
     9  C   -0.044352  -0.030145   0.428415  -0.000000  -0.000007   0.000932
    10  C   -0.004848  -0.044620  -0.022566   0.000002   0.000781  -0.000028
    11  C    0.466273  -0.025262  -0.056738  -0.000000  -0.000011  -0.000000
    12  H   -0.041041   0.004165   0.000337  -0.000000  -0.000009  -0.000000
    13  C    4.935686   0.494246  -0.002723  -0.000000  -0.000000   0.000000
    14  C    0.494246   4.944990   0.493129   0.000000   0.000000  -0.000000
    15  C   -0.002723   0.493129   5.033566  -0.000000   0.000000   0.000007
    16  H   -0.000000   0.000000  -0.000000   0.565022  -0.004156  -0.000146
    17  H   -0.000000   0.000000   0.000000  -0.004156   0.540853   0.000016
    18  H    0.000000  -0.000000   0.000007  -0.000146   0.000016   0.533976
    19  H    0.000000  -0.000000  -0.000000  -0.004742  -0.000148  -0.004144
    20  H    0.360715  -0.036438   0.003492  -0.000000  -0.000000   0.000000
    21  H   -0.034354   0.358764  -0.038421   0.000000  -0.000000  -0.000000
    22  O   -0.000021   0.000696   0.002880   0.000000   0.000000   0.014252
    23  O    0.001008  -0.000009  -0.000064   0.000000   0.015513   0.000000
    24  N    0.003660  -0.062157   0.158479  -0.000000  -0.000000  -0.000003
    25  O    0.000338   0.004374  -0.082340  -0.000000   0.000000   0.000000
    26  O   -0.000089  -0.000901  -0.075867  -0.000000   0.000000   0.000001
              19         20         21         22         23         24
     1  C   -0.040320  -0.000000   0.000000  -0.000007   0.000861  -0.000000
     2  C    0.003844  -0.000000   0.000000  -0.000057   0.002565  -0.000000
     3  C    0.000907   0.000002  -0.000000   0.003542  -0.104206   0.000005
     4  C    0.002873  -0.000000   0.000003  -0.097800   0.004157  -0.000135
     5  C   -0.036740   0.000000  -0.000000   0.001837  -0.000063  -0.000001
     6  C    0.362343   0.000000  -0.000000   0.000832  -0.000006   0.000000
     7  C    0.000010  -0.000136   0.000006  -0.000117   0.579879  -0.000059
     8  C   -0.000131   0.000010  -0.000042   0.573814  -0.000153  -0.013624
     9  C    0.000003   0.001263   0.004451  -0.100733   0.004382  -0.028145
    10  C   -0.000000   0.002401   0.000420   0.003485  -0.106205   0.005068
    11  C    0.000000  -0.035222   0.003935  -0.000033   0.002166   0.000055
    12  H   -0.000000  -0.003734  -0.000125   0.000000   0.017796   0.000004
    13  C    0.000000   0.360715  -0.034354  -0.000021   0.001008   0.003660
    14  C   -0.000000  -0.036438   0.358764   0.000696  -0.000009  -0.062157
    15  C   -0.000000   0.003492  -0.038421   0.002880  -0.000064   0.158479
    16  H   -0.004742  -0.000000   0.000000   0.000000   0.000000  -0.000000
    17  H   -0.000148  -0.000000  -0.000000   0.000000   0.015513  -0.000000
    18  H   -0.004144   0.000000  -0.000000   0.014252   0.000000  -0.000003
    19  H    0.563769   0.000000  -0.000000   0.000000   0.000000  -0.000000
    20  H    0.000000   0.549579  -0.004452  -0.000000   0.000002  -0.000090
    21  H   -0.000000  -0.004452   0.534274   0.000011   0.000000  -0.007397
    22  O    0.000000  -0.000000   0.000011   8.063876   0.000000   0.002728
    23  O    0.000000   0.000002   0.000000   0.000000   8.053331   0.000000
    24  N   -0.000000  -0.000090  -0.007397   0.002728   0.000000   6.006874
    25  O    0.000000   0.000002   0.004211  -0.001711  -0.000000   0.277851
    26  O    0.000000   0.000001   0.000208  -0.004905  -0.000000   0.284626
              25         26
     1  C    0.000000  -0.000000
     2  C   -0.000000   0.000000
     3  C   -0.000000  -0.000004
     4  C   -0.000005  -0.000154
     5  C    0.000000   0.000009
     6  C    0.000000   0.000000
     7  C    0.000001   0.000004
     8  C    0.000485   0.001123
     9  C   -0.000055   0.000287
    10  C   -0.000107  -0.000019
    11  C   -0.000014  -0.000007
    12  H   -0.000000  -0.000000
    13  C    0.000338  -0.000089
    14  C    0.004374  -0.000901
    15  C   -0.082340  -0.075867
    16  H   -0.000000  -0.000000
    17  H    0.000000   0.000000
    18  H    0.000000   0.000001
    19  H    0.000000   0.000000
    20  H    0.000002   0.000001
    21  H    0.004211   0.000208
    22  O   -0.001711  -0.004905
    23  O   -0.000000  -0.000000
    24  N    0.277851   0.284626
    25  O    8.245909  -0.083703
    26  O   -0.083703   8.243644
 Mulliken charges:
               1
     1  C   -0.123765
     2  C   -0.169999
     3  C    0.053117
     4  C    0.052453
     5  C   -0.169303
     6  C   -0.123616
     7  C    0.351301
     8  C    0.358877
     9  C    0.082201
    10  C    0.004961
    11  C   -0.148340
    12  H    0.180103
    13  C   -0.140028
    14  C   -0.108466
    15  C    0.196224
    16  H    0.151389
    17  H    0.172505
    18  H    0.177547
    19  H    0.152476
    20  H    0.162604
    21  H    0.178509
    22  O   -0.462570
    23  O   -0.470955
    24  N    0.372261
    25  O   -0.365236
    26  O   -0.364252
 Sum of Mulliken charges =  -0.00000
 Mulliken charges with hydrogens summed into heavy atoms:
               1
     1  C    0.027624
     2  C    0.002506
     3  C    0.053117
     4  C    0.052453
     5  C    0.008243
     6  C    0.028860
     7  C    0.351301
     8  C    0.358877
     9  C    0.082201
    10  C    0.004961
    11  C    0.031764
    13  C    0.022576
    14  C    0.070044
    15  C    0.196224
    22  O   -0.462570
    23  O   -0.470955
    24  N    0.372261
    25  O   -0.365236
    26  O   -0.364252
 Electronic spatial extent (au):  <R**2>=           4583.4966
 Charge=             -0.0000 electrons
 Dipole moment (field-independent basis, Debye):
    X=             -2.6096    Y=              2.8861    Z=              0.2131  Tot=              3.8968
 Quadrupole moment (field-independent basis, Debye-Ang):
   XX=            -90.8536   YY=           -110.4868   ZZ=           -108.7941
   XY=             22.3631   XZ=              0.6353   YZ=             -0.0678
 Traceless Quadrupole moment (field-independent basis, Debye-Ang):
   XX=             12.5246   YY=             -7.1087   ZZ=             -5.4159
   XY=             22.3631   XZ=              0.6353   YZ=             -0.0678
 Octapole moment (field-independent basis, Debye-Ang**2):
  XXX=            -44.7390  YYY=             -7.1768  ZZZ=             -1.5015  XYY=              4.2142
  XXY=             21.2171  XXZ=              9.4743  XZZ=              3.8259  YZZ=             -0.5570
  YYZ=             -0.0774  XYZ=             -0.1902
 Hexadecapole moment (field-independent basis, Debye-Ang**3):
 XXXX=          -3542.1842 YYYY=          -1780.9975 ZZZZ=           -174.9279 XXXY=            157.6121
 XXXZ=             22.1728 YYYX=            120.7976 YYYZ=             -0.4699 ZZZX=             -0.7825
 ZZZY=              2.5969 XXYY=           -939.0666 XXZZ=           -752.1899 YYZZ=           -342.1797
 XXYZ=             -3.2294 YYXZ=             -3.3951 ZZXY=            -22.2654
 N-N= 1.331868041665D+03 E-N=-4.745059253587D+03  KE= 8.851629538292D+02
 No NMR shielding tensors so no spin-rotation constants.
 Leave Link  601 at Fri Jun  4 00:04:04 2021, MaxMem=    33554432 cpu:         0.3
 (Enter /opt/app/gaussian09/e01/g09/l9999.exe)
 1\1\GINC-NB-0196\FOpt\RB3LYP\6-31G(d)\C14H7N1O4\ROOT\04-Jun-2021\0\\#p
  opt b3lyp/6-31g(d) geom=connectivity int=ultrafine\\1_nitro_anthraqui
 none opt\\0,1\C,-3.3599602353,-3.2387493983,-0.0735608168\C,-1.9680710
 55,-3.2223921074,-0.0500780117\C,-1.2819500282,-2.0026007847,-0.022315
 4096\C,-2.0034408991,-0.7935838778,-0.0110881639\C,-3.402801237,-0.818
 8370474,-0.0238751613\C,-4.0773050027,-2.0364557866,-0.0604969704\C,0.
 2042500178,-2.0068205406,0.0093196885\C,-1.3106464233,0.5235455507,0.0
 432245412\C,0.1808736574,0.5239826167,-0.0810944915\C,0.9059848079,-0.
 6834747959,-0.0245462851\C,2.3049764248,-0.6777369107,-0.0220794402\H,
 2.8202832762,-1.6311144473,0.0203991385\C,3.0009626963,0.5257083225,-0
 .0661491863\C,2.3027721323,1.7326043763,-0.1358734119\C,0.9130828986,1
 .7161836091,-0.1635409582\H,-3.8896982555,-4.1867950227,-0.0992645917\
 H,-1.3898979308,-4.1404396452,-0.0519209242\H,-3.9375522998,0.12491570
 16,-0.0051198346\H,-5.1633611394,-2.0521378157,-0.0772433959\H,4.08654
 35115,0.5326612282,-0.051900485\H,2.8251803308,2.6824649006,-0.1790107
 567\O,-1.9293490066,1.5638685452,0.2170846434\O,0.8444137886,-3.050758
 1208,0.0441126894\N,0.260601357,3.0329342692,-0.3436494227\O,0.4113941
 569,3.8484607184,0.5600057496\O,-0.2949244232,3.2304717727,-1.41638954
 28\\Version=ES64L-G09RevE.01\State=1-A\HF=-893.2606196\RMSD=4.519e-09\
 RMSF=1.001e-05\Dipole=0.2874539,-1.5058299,-0.0168095\Quadrupole=16.02
 36074,-12.0038307,-4.0197767,11.5460834,-0.52293,0.0546417\PG=C01 [X(C
 14H7N1O4)]\\@


 There ain't no surer way to find out whether you
 like people or hate them than to travel with them.
                                     -- Mark Twain
 Job cpu time:       0 days  2 hours 38 minutes 28.9 seconds.
 File lengths (MBytes):  RWF=     57 Int=      0 D2E=      0 Chk=      7 Scr=      1
 Normal termination of Gaussian 09 at Fri Jun  4 00:04:04 2021.
