 Entering Gaussian System, Link 0=/opt/app/gaussian09/e01/g09/g09.exec
 Input=1_nitro_anthraquinone_td.gjf
 Output=1_nitro_anthraquinone_td.log
 Initial command:
 /opt/app/gaussian09/e01/g09/l1.exe "./Gau-42356.inp" -scrdir="./"
 Entering Link 1 = /opt/app/gaussian09/e01/g09/l1.exe PID=     42360.
  
 Copyright (c) 1988,1990,1992,1993,1995,1998,2003,2009,2015,
            Gaussian, Inc.  All Rights Reserved.
  
 This is part of the Gaussian(R) 09 program.  It is based on
 the Gaussian(R) 03 system (copyright 2003, Gaussian, Inc.),
 the Gaussian(R) 98 system (copyright 1998, Gaussian, Inc.),
 the Gaussian(R) 94 system (copyright 1995, Gaussian, Inc.),
 the Gaussian 92(TM) system (copyright 1992, Gaussian, Inc.),
 the Gaussian 90(TM) system (copyright 1990, Gaussian, Inc.),
 the Gaussian 88(TM) system (copyright 1988, Gaussian, Inc.),
 the Gaussian 86(TM) system (copyright 1986, Carnegie Mellon
 University), and the Gaussian 82(TM) system (copyright 1983,
 Carnegie Mellon University). Gaussian is a federally registered
 trademark of Gaussian, Inc.
  
 This software contains proprietary and confidential information,
 including trade secrets, belonging to Gaussian, Inc.
  
 This software is provided under written license and may be
 used, copied, transmitted, or stored only in accord with that
 written license.
  
 The following legend is applicable only to US Government
 contracts under FAR:
  
                    RESTRICTED RIGHTS LEGEND
  
 Use, reproduction and disclosure by the US Government is
 subject to restrictions as set forth in subparagraphs (a)
 and (c) of the Commercial Computer Software - Restricted
 Rights clause in FAR 52.227-19.
  
 Gaussian, Inc.
 340 Quinnipiac St., Bldg. 40, Wallingford CT 06492
  
  
 ---------------------------------------------------------------
 Warning -- This program may not be used in any manner that
 competes with the business of Gaussian, Inc. or will provide
 assistance to any competitor of Gaussian, Inc.  The licensee
 of this program is prohibited from giving any competitor of
 Gaussian, Inc. access to this program.  By using this program,
 the user acknowledges that Gaussian, Inc. is engaged in the
 business of creating and licensing software in the field of
 computational chemistry and represents and warrants to the
 licensee that it is not a competitor of Gaussian, Inc. and that
 it will not use this program in any manner prohibited above.
 ---------------------------------------------------------------
  

 Cite this work as:
 Gaussian 09, Revision E.01,
 M. J. Frisch, G. W. Trucks, H. B. Schlegel, G. E. Scuseria, 
 M. A. Robb, J. R. Cheeseman, G. Scalmani, V. Barone, B. Mennucci, 
 G. A. Petersson, H. Nakatsuji, M. Caricato, X. Li, H. P. Hratchian, 
 A. F. Izmaylov, J. Bloino, G. Zheng, J. L. Sonnenberg, M. Hada, 
 M. Ehara, K. Toyota, R. Fukuda, J. Hasegawa, M. Ishida, T. Nakajima, 
 Y. Honda, O. Kitao, H. Nakai, T. Vreven, J. A. Montgomery, Jr., 
 J. E. Peralta, F. Ogliaro, M. Bearpark, J. J. Heyd, E. Brothers, 
 K. N. Kudin, V. N. Staroverov, T. Keith, R. Kobayashi, J. Normand, 
 K. Raghavachari, A. Rendell, J. C. Burant, S. S. Iyengar, J. Tomasi, 
 M. Cossi, N. Rega, J. M. Millam, M. Klene, J. E. Knox, J. B. Cross, 
 V. Bakken, C. Adamo, J. Jaramillo, R. Gomperts, R. E. Stratmann, 
 O. Yazyev, A. J. Austin, R. Cammi, C. Pomelli, J. W. Ochterski, 
 R. L. Martin, K. Morokuma, V. G. Zakrzewski, G. A. Voth, 
 P. Salvador, J. J. Dannenberg, S. Dapprich, A. D. Daniels, 
 O. Farkas, J. B. Foresman, J. V. Ortiz, J. Cioslowski, 
 and D. J. Fox, Gaussian, Inc., Wallingford CT, 2013.
 
 ******************************************
 Gaussian 09:  ES64L-G09RevE.01 30-Nov-2015
                 4-Jun-2021 
 ******************************************
 %chk=1_nitro_anthraquinone_td.chk
 -------------------------------------------------
 #p td(NStates=10) b3lyp/6-31+g(d) nosymm pop=full
 -------------------------------------------------
 1/38=1/1;
 2/12=2,15=1,17=6,18=5,40=1/2;
 3/5=1,6=6,7=11,11=9,16=1,25=1,30=1,74=-5/1,2,8,3;
 4//1;
 5/5=2,38=5/2;
 8/6=1,10=2,108=10/1;
 9/41=10,42=1,70=2/14;
 6/7=3/1;
 99/5=1,9=1/99;
 Leave Link    1 at Fri Jun  4 09:47:30 2021, MaxMem=           0 cpu:         0.5
 (Enter /opt/app/gaussian09/e01/g09/l101.exe)
 ------------------------
 1_nitro_anthraquinone td
 ------------------------
 Symbolic Z-matrix:
 Charge =  0 Multiplicity = 1
 C                    -4.31492  -0.4101    0.08831 
 C                    -3.46315   0.69107   0.07893 
 C                    -2.07769   0.50476   0.00664 
 C                    -1.54923  -0.79839  -0.06361 
 C                    -2.41289  -1.89979  -0.06462 
 C                    -3.78936  -1.70583   0.01655 
 C                    -1.18568   1.69382  -0.00901 
 C                    -0.08287  -1.03708  -0.16649 
 C                     0.82035   0.14811  -0.02647 
 C                     0.29345   1.45551  -0.02396 
 C                     1.14161   2.56803  -0.01182 
 H                     0.69113   3.5546   -0.00828 
 C                     2.52196   2.39698  -0.01154 
 C                     3.06501   1.11094  -0.00058 
 C                     2.21463   0.01142   0.013 
 H                    -5.38948  -0.26263   0.14865 
 H                    -3.84633   1.705     0.12592 
 H                    -1.98349  -2.894    -0.12914 
 H                    -4.45635  -2.56323   0.02242 
 H                     3.18177   3.25918  -0.01455 
 H                     4.13849   0.95418   0.00769 
 O                     0.36862  -2.15111  -0.39096 
 O                    -1.63285   2.83426   0.00739 
 N                     2.87587  -1.30808   0.13006 
 O                     3.59211  -1.64809  -0.80578 
 O                     2.72784  -1.90671   1.18748 
 
 NAtoms=     26 NQM=       26 NQMF=       0 NMMI=      0 NMMIF=      0
                NMic=       0 NMicF=      0.
                    Isotopes and Nuclear Properties:
 (Nuclear quadrupole moments (NQMom) in fm**2, nuclear magnetic moments (NMagM)
  in nuclear magnetons)

  Atom         1           2           3           4           5           6           7           8           9          10
 IAtWgt=          12          12          12          12          12          12          12          12          12          12
 AtmWgt=  12.0000000  12.0000000  12.0000000  12.0000000  12.0000000  12.0000000  12.0000000  12.0000000  12.0000000  12.0000000
 NucSpn=           0           0           0           0           0           0           0           0           0           0
 AtZEff=   0.0000000   0.0000000   0.0000000   0.0000000   0.0000000   0.0000000   0.0000000   0.0000000   0.0000000   0.0000000
 NQMom=    0.0000000   0.0000000   0.0000000   0.0000000   0.0000000   0.0000000   0.0000000   0.0000000   0.0000000   0.0000000
 NMagM=    0.0000000   0.0000000   0.0000000   0.0000000   0.0000000   0.0000000   0.0000000   0.0000000   0.0000000   0.0000000
 AtZNuc=   6.0000000   6.0000000   6.0000000   6.0000000   6.0000000   6.0000000   6.0000000   6.0000000   6.0000000   6.0000000

  Atom        11          12          13          14          15          16          17          18          19          20
 IAtWgt=          12           1          12          12          12           1           1           1           1           1
 AtmWgt=  12.0000000   1.0078250  12.0000000  12.0000000  12.0000000   1.0078250   1.0078250   1.0078250   1.0078250   1.0078250
 NucSpn=           0           1           0           0           0           1           1           1           1           1
 AtZEff=   0.0000000   0.0000000   0.0000000   0.0000000   0.0000000   0.0000000   0.0000000   0.0000000   0.0000000   0.0000000
 NQMom=    0.0000000   0.0000000   0.0000000   0.0000000   0.0000000   0.0000000   0.0000000   0.0000000   0.0000000   0.0000000
 NMagM=    0.0000000   2.7928460   0.0000000   0.0000000   0.0000000   2.7928460   2.7928460   2.7928460   2.7928460   2.7928460
 AtZNuc=   6.0000000   1.0000000   6.0000000   6.0000000   6.0000000   1.0000000   1.0000000   1.0000000   1.0000000   1.0000000

  Atom        21          22          23          24          25          26
 IAtWgt=           1          16          16          14          16          16
 AtmWgt=   1.0078250  15.9949146  15.9949146  14.0030740  15.9949146  15.9949146
 NucSpn=           1           0           0           2           0           0
 AtZEff=   0.0000000   0.0000000   0.0000000   0.0000000   0.0000000   0.0000000
 NQMom=    0.0000000   0.0000000   0.0000000   2.0440000   0.0000000   0.0000000
 NMagM=    2.7928460   0.0000000   0.0000000   0.4037610   0.0000000   0.0000000
 AtZNuc=   1.0000000   8.0000000   8.0000000   7.0000000   8.0000000   8.0000000
 Leave Link  101 at Fri Jun  4 09:47:30 2021, MaxMem=    33554432 cpu:         0.1
 (Enter /opt/app/gaussian09/e01/g09/l202.exe)
                          Input orientation:                          
 ---------------------------------------------------------------------
 Center     Atomic      Atomic             Coordinates (Angstroms)
 Number     Number       Type             X           Y           Z
 ---------------------------------------------------------------------
      1          6           0       -4.314916   -0.410103    0.088307
      2          6           0       -3.463147    0.691068    0.078926
      3          6           0       -2.077691    0.504759    0.006640
      4          6           0       -1.549226   -0.798386   -0.063612
      5          6           0       -2.412887   -1.899794   -0.064618
      6          6           0       -3.789361   -1.705830    0.016551
      7          6           0       -1.185677    1.693824   -0.009010
      8          6           0       -0.082875   -1.037081   -0.166489
      9          6           0        0.820349    0.148107   -0.026475
     10          6           0        0.293447    1.455511   -0.023962
     11          6           0        1.141610    2.568025   -0.011820
     12          1           0        0.691134    3.554601   -0.008275
     13          6           0        2.521959    2.396980   -0.011544
     14          6           0        3.065011    1.110938   -0.000584
     15          6           0        2.214633    0.011418    0.013003
     16          1           0       -5.389478   -0.262626    0.148649
     17          1           0       -3.846327    1.705002    0.125916
     18          1           0       -1.983493   -2.893996   -0.129135
     19          1           0       -4.456345   -2.563234    0.022419
     20          1           0        3.181767    3.259176   -0.014551
     21          1           0        4.138493    0.954175    0.007694
     22          8           0        0.368615   -2.151111   -0.390957
     23          8           0       -1.632845    2.834262    0.007387
     24          7           0        2.875865   -1.308080    0.130059
     25          8           0        3.592111   -1.648089   -0.805784
     26          8           0        2.727844   -1.906707    1.187478
 ---------------------------------------------------------------------
                    Distance matrix (angstroms):
                    1          2          3          4          5
     1  C    0.000000
     2  C    1.392183   0.000000
     3  C    2.418433   1.399794   0.000000
     4  C    2.796942   2.429379   1.407976   0.000000
     5  C    2.420802   2.799324   2.428849   1.399647   0.000000
     6  C    1.400094   2.419798   2.795821   2.418281   1.392441
     7  C    3.772017   2.490004   1.486543   2.519178   3.797792
     8  C    4.285813   3.804335   2.527160   1.489209   2.486686
     9  C    5.166790   4.319057   2.920091   2.551884   3.827423
    10  C    4.972939   3.834964   2.554830   2.911540   4.310912
    11  C    6.217150   4.973429   3.823782   4.309989   5.709522
    12  H    6.386606   5.046333   4.119241   4.895995   6.276029
    13  C    7.391383   6.224132   4.973692   5.175676   6.543530
    14  C    7.535568   6.542130   5.178310   4.994064   6.251078
    15  C    6.543574   5.718694   4.320587   3.850752   5.007264
    16  H    1.086312   2.150615   3.402496   3.883249   3.403806
    17  H    2.166716   1.084942   2.140767   3.402873   3.884020
    18  H    3.413582   3.883986   3.402771   2.141136   1.084887
    19  H    2.158777   3.402957   3.882116   3.401975   2.150221
    20  H    8.347121   7.124521   5.937100   6.232857   7.610363
    21  H    8.563170   7.606525   6.232409   5.952033   7.146394
    22  O    5.019588   4.793868   3.632650   2.369628   2.811834
    23  O    4.210220   2.819291   2.371597   3.634303   4.798430
    24  N    7.246754   6.646975   5.276300   4.458557   5.325309
    25  O    8.053141   7.485387   6.118941   5.263664   6.055797
    26  O    7.283438   6.804828   5.504790   4.592050   5.291021
                    6          7          8          9         10
     6  C    0.000000
     7  C    4.282227   0.000000
     8  C    3.770778   2.949375   0.000000
     9  C    4.968738   2.532526   1.496692   0.000000
    10  C    5.163819   1.498273   2.524866   1.409588   0.000000
    11  C    6.525421   2.486061   3.810522   2.441194   1.399006
    12  H    6.909962   2.642898   4.659148   3.408992   2.136488
    13  C    7.527722   3.773725   4.312997   2.820129   2.419254
    14  C    7.410593   4.290475   3.814537   2.442585   2.793000
    15  C    6.244750   3.793822   2.531820   1.401525   2.403691
    16  H    2.158856   4.639450   5.372069   6.225859   5.939480
    17  H    3.413060   2.664093   4.665629   4.921891   4.149992
    18  H    2.166593   4.658223   2.657420   4.138413   4.910573
    19  H    1.086299   5.368501   4.635954   5.932728   6.221976
    20  H    8.558555   4.639496   5.398036   3.905789   3.405245
    21  H    8.362211   5.375328   4.670695   3.414820   3.877721
    22  O    4.201560   4.164761   1.222821   2.371353   3.626025
    23  O    5.026238   1.225082   4.173720   3.637958   2.369079
    24  N    6.678048   5.052415   2.985887   2.523912   3.785505
    25  O    7.427361   5.884767   3.779888   3.393568   4.596168
    26  O    6.624604   5.450785   3.238768   3.055238   4.324164
                   11         12         13         14         15
    11  C    0.000000
    12  H    1.084562   0.000000
    13  C    1.390906   2.166107   0.000000
    14  C    2.413027   3.406882   1.396041   0.000000
    15  C    2.772767   3.856897   2.405402   1.390062   0.000000
    16  H    7.119933   7.181203   8.348054   8.566641   7.610256
    17  H    5.063922   4.901793   6.407246   6.937976   6.294142
    18  H    6.293942   6.982309   6.950349   6.445418   5.107435
    19  H    7.593951   7.995335   8.561636   8.370834   7.150586
    20  H    2.154051   2.508101   1.085697   2.151454   3.388811
    21  H    3.403850   4.318189   2.166850   1.084899   2.142442
    22  O    4.797031   5.727618   5.046382   4.250165   2.871845
    23  O    2.787267   2.433107   4.177796   5.003975   4.771957
    24  N    4.248760   5.332716   3.724617   2.429916   1.480542
    25  O    4.940743   6.009964   4.258946   2.922055   2.306907
    26  O    4.896701   5.950118   4.472334   3.260576   2.306942
                   16         17         18         19         20
    16  H    0.000000
    17  H    2.500678   0.000000
    18  H    4.313004   4.968500   0.000000
    19  H    2.485853   4.312850   2.499474   0.000000
    20  H    9.268007   7.199256   8.034586   9.604300   0.000000
    21  H    9.606388   8.020915   7.232279   9.286745   2.495767
    22  O    6.083846   5.736071   2.480492   4.860141   6.109559
    23  O    4.870622   2.487725   5.740604   6.091415   4.833376
    24  N    8.331219   7.366584   5.118171   7.439644   4.579773
    25  O    9.137800   8.212286   5.753042   8.142546   4.987553
    26  O    8.347040   7.575690   4.990481   7.307596   5.323277
                   21         22         23         24         25
    21  H    0.000000
    22  O    4.900378   0.000000
    23  O    6.069849   5.386879   0.000000
    24  N    2.593646   2.696008   6.123930   0.000000
    25  O    2.780658   3.288774   6.932018   1.226546   0.000000
    26  O    3.400952   2.849061   6.548665   1.224092   2.187907
                   26
    26  O    0.000000
 Symmetry turned off by external request.
 Stoichiometry    C14H7NO4
 Framework group  C1[X(C14H7NO4)]
 Deg. of freedom    72
 Full point group                 C1      NOp   1
 Rotational constants (GHZ):      0.6844384      0.3160807      0.2231576
 Leave Link  202 at Fri Jun  4 09:47:31 2021, MaxMem=    33554432 cpu:         0.0
 (Enter /opt/app/gaussian09/e01/g09/l301.exe)
 Standard basis: 6-31+G(d) (6D, 7F)
 Ernie: Thresh=  0.10000D-02 Tol=  0.10000D-05 Strict=F.
   375 basis functions,   636 primitive gaussians,   375 cartesian basis functions
    65 alpha electrons       65 beta electrons
       nuclear repulsion energy      1331.8679401396 Hartrees.
 IExCor=  402 DFT=T Ex+Corr=B3LYP ExCW=0 ScaHFX=  0.200000
 ScaDFX=  0.800000  0.720000  1.000000  0.810000 ScalE2=  1.000000  1.000000
 IRadAn=      0 IRanWt=     -1 IRanGd=            0 ICorTp=0 IEmpDi=  4
 NAtoms=   26 NActive=   26 NUniq=   26 SFac= 1.00D+00 NAtFMM=   60 NAOKFM=F Big=F
 Integral buffers will be    131072 words long.
 Regular integral format.
 Two-electron integral symmetry is turned off.
 Leave Link  301 at Fri Jun  4 09:47:31 2021, MaxMem=    33554432 cpu:         0.0
 (Enter /opt/app/gaussian09/e01/g09/l302.exe)
 NPDir=0 NMtPBC=     1 NCelOv=     1 NCel=       1 NClECP=     1 NCelD=      1
         NCelK=      1 NCelE2=     1 NClLst=     1 CellRange=     0.0.
 One-electron integrals computed using PRISM.
 NBasis=   375 RedAO= T EigKep=  1.06D-06  NBF=   375
 NBsUse=   370 1.00D-06 EigRej=  8.55D-07 NBFU=   370
 Precomputing XC quadrature grid using
 IXCGrd= 4 IRadAn=           0 IRanWt=          -1 IRanGd=           0 AccXCQ= 0.00D+00.
 Generated NRdTot=       0 NPtTot=           0 NUsed=           0 NTot=          32
 NSgBfM=   373   373   373   373   373 MxSgAt=    26 MxSgA2=    26.
 Leave Link  302 at Fri Jun  4 09:47:32 2021, MaxMem=    33554432 cpu:         0.9
 (Enter /opt/app/gaussian09/e01/g09/l308.exe)
 Leave Link  308 at Fri Jun  4 09:47:33 2021, MaxMem=    33554432 cpu:         0.1
 (Enter /opt/app/gaussian09/e01/g09/l303.exe)
 DipDrv:  MaxL=1.
 Leave Link  303 at Fri Jun  4 09:47:33 2021, MaxMem=    33554432 cpu:         0.1
 (Enter /opt/app/gaussian09/e01/g09/l401.exe)
 ExpMin= 4.38D-02 ExpMax= 5.48D+03 ExpMxC= 8.25D+02 IAcc=2 IRadAn=         4 AccDes= 0.00D+00
 Harris functional with IExCor=  402 and IRadAn=       4 diagonalized for initial guess.
 HarFok:  IExCor=  402 AccDes= 0.00D+00 IRadAn=         4 IDoV= 1 UseB2=F ITyADJ=14
 ICtDFT=  3500011 ScaDFX=  1.000000  1.000000  1.000000  1.000000
 FoFCou: FMM=F IPFlag=           0 FMFlag=      100000 FMFlg1=           0
         NFxFlg=           0 DoJE=T BraDBF=F KetDBF=T FulRan=T
         wScrn=  0.000000 ICntrl=     500 IOpCl=  0 I1Cent=   200000004 NGrid=           0
         NMat0=    1 NMatS0=      1 NMatT0=    0 NMatD0=    1 NMtDS0=    0 NMtDT0=    0
 Symmetry not used in FoFCou.
 Harris En= -893.288973906640    
 JPrj=0 DoOrth=F DoCkMO=F.
 Leave Link  401 at Fri Jun  4 09:47:45 2021, MaxMem=    33554432 cpu:        11.0
 (Enter /opt/app/gaussian09/e01/g09/l502.exe)
 Closed shell SCF:
 Using DIIS extrapolation, IDIIS=  1040.
 Two-electron integral symmetry not used.
 IVT=      444977 IEndB=      444977 NGot=    33554432 MDV=    33267096
 LenX=    33267096 LenY=    33126030
 Requested convergence on RMS density matrix=1.00D-08 within 128 cycles.
 Requested convergence on MAX density matrix=1.00D-06.
 Requested convergence on             energy=1.00D-06.
 No special actions if energy rises.
 Fock matrices will be formed incrementally for  20 cycles.

 Cycle   1  Pass 1  IDiag  1:
 FoFJK:  IHMeth= 1 ICntrl=       0 DoSepK=F KAlg= 0 I1Cent=   0 FoldK=F
 IRaf= 850000000 NMat=   1 IRICut=       1 DoRegI=T DoRafI=F ISym2E= 0.
 FoFCou: FMM=F IPFlag=           0 FMFlag=      100000 FMFlg1=           0
         NFxFlg=           0 DoJE=F BraDBF=F KetDBF=F FulRan=T
         wScrn=  0.000000 ICntrl=       0 IOpCl=  0 I1Cent=           0 NGrid=           0
         NMat0=    1 NMatS0=      1 NMatT0=    0 NMatD0=    1 NMtDS0=    0 NMtDT0=    0
 Symmetry not used in FoFCou.
 E= -892.859221616522    
 DIIS: error= 1.94D-02 at cycle   1 NSaved=   1.
 NSaved= 1 IEnMin= 1 EnMin= -892.859221616522     IErMin= 1 ErrMin= 1.94D-02
 ErrMax= 1.94D-02  0.00D+00 EMaxC= 1.00D-01 BMatC= 5.22D-01 BMatP= 5.22D-01
 IDIUse=3 WtCom= 8.06D-01 WtEn= 1.94D-01
 Coeff-Com:  0.100D+01
 Coeff-En:   0.100D+01
 Coeff:      0.100D+01
 Gap=     0.156 Goal=   None    Shift=    0.000
 GapD=    0.156 DampG=1.000 DampE=0.500 DampFc=0.5000 IDamp=-1.
 Damping current iteration by 5.00D-01
 RMSDP=4.74D-02 MaxDP=3.17D+00              OVMax= 2.83D-01

 Cycle   2  Pass 1  IDiag  1:
 RMSU=  2.32D-02    CP:  1.05D+00
 E= -892.919840013192     Delta-E=       -0.060618396669 Rises=F Damp=T
 DIIS: error= 1.50D-02 at cycle   2 NSaved=   2.
 NSaved= 2 IEnMin= 2 EnMin= -892.919840013192     IErMin= 2 ErrMin= 1.50D-02
 ErrMax= 1.50D-02  0.00D+00 EMaxC= 1.00D-01 BMatC= 1.34D-01 BMatP= 5.22D-01
 IDIUse=3 WtCom= 8.50D-01 WtEn= 1.50D-01
 Coeff-Com:  0.297D+00 0.703D+00
 Coeff-En:   0.438D+00 0.562D+00
 Coeff:      0.318D+00 0.682D+00
 Gap=     0.187 Goal=   None    Shift=    0.000
 RMSDP=3.23D-02 MaxDP=2.11D+00 DE=-6.06D-02 OVMax= 2.39D-01

 Cycle   3  Pass 1  IDiag  1:
 RMSU=  1.66D-02    CP:  7.85D-01  8.27D-01
 E= -893.247427725612     Delta-E=       -0.327587712421 Rises=F Damp=F
 DIIS: error= 1.15D-02 at cycle   3 NSaved=   3.
 NSaved= 3 IEnMin= 3 EnMin= -893.247427725612     IErMin= 3 ErrMin= 1.15D-02
 ErrMax= 1.15D-02  0.00D+00 EMaxC= 1.00D-01 BMatC= 4.58D-02 BMatP= 1.34D-01
 IDIUse=3 WtCom= 8.85D-01 WtEn= 1.15D-01
 Coeff-Com:  0.101D+00 0.368D+00 0.531D+00
 Coeff-En:   0.000D+00 0.000D+00 0.100D+01
 Coeff:      0.893D-01 0.326D+00 0.585D+00
 Gap=     0.164 Goal=   None    Shift=    0.000
 RMSDP=1.27D-02 MaxDP=6.94D-01 DE=-3.28D-01 OVMax= 8.18D-02

 Cycle   4  Pass 1  IDiag  1:
 RMSU=  9.28D-03    CP:  8.09D-01  7.17D-01  5.24D-01
 E= -893.275576880884     Delta-E=       -0.028149155271 Rises=F Damp=F
 DIIS: error= 8.93D-03 at cycle   4 NSaved=   4.
 NSaved= 4 IEnMin= 4 EnMin= -893.275576880884     IErMin= 4 ErrMin= 8.93D-03
 ErrMax= 8.93D-03  0.00D+00 EMaxC= 1.00D-01 BMatC= 2.06D-02 BMatP= 4.58D-02
 IDIUse=3 WtCom= 9.11D-01 WtEn= 8.93D-02
 Coeff-Com:  0.322D-01 0.103D+00 0.397D+00 0.468D+00
 Coeff-En:   0.000D+00 0.000D+00 0.323D+00 0.677D+00
 Coeff:      0.293D-01 0.938D-01 0.391D+00 0.486D+00
 Gap=     0.160 Goal=   None    Shift=    0.000
 RMSDP=3.93D-03 MaxDP=2.60D-01 DE=-2.81D-02 OVMax= 4.03D-02

 Cycle   5  Pass 1  IDiag  1:
 RMSU=  2.34D-03    CP:  7.91D-01  7.15D-01  6.13D-01  7.83D-01
 E= -893.293002891144     Delta-E=       -0.017426010260 Rises=F Damp=F
 DIIS: error= 1.60D-03 at cycle   5 NSaved=   5.
 NSaved= 5 IEnMin= 5 EnMin= -893.293002891144     IErMin= 5 ErrMin= 1.60D-03
 ErrMax= 1.60D-03  0.00D+00 EMaxC= 1.00D-01 BMatC= 2.14D-03 BMatP= 2.06D-02
 IDIUse=3 WtCom= 9.84D-01 WtEn= 1.60D-02
 Coeff-Com:  0.814D-02 0.126D-01 0.189D+00 0.321D+00 0.470D+00
 Coeff-En:   0.000D+00 0.000D+00 0.000D+00 0.177D-01 0.982D+00
 Coeff:      0.801D-02 0.123D-01 0.186D+00 0.316D+00 0.478D+00
 Gap=     0.153 Goal=   None    Shift=    0.000
 RMSDP=1.08D-03 MaxDP=6.79D-02 DE=-1.74D-02 OVMax= 9.13D-03

 Cycle   6  Pass 1  IDiag  1:
 RMSU=  8.46D-04    CP:  7.90D-01  7.15D-01  6.28D-01  7.16D-01  9.40D-01
 E= -893.294522633621     Delta-E=       -0.001519742477 Rises=F Damp=F
 DIIS: error= 3.73D-04 at cycle   6 NSaved=   6.
 NSaved= 6 IEnMin= 6 EnMin= -893.294522633621     IErMin= 6 ErrMin= 3.73D-04
 ErrMax= 3.73D-04  0.00D+00 EMaxC= 1.00D-01 BMatC= 1.45D-04 BMatP= 2.14D-03
 IDIUse=3 WtCom= 9.96D-01 WtEn= 3.73D-03
 Coeff-Com:  0.171D-02-0.234D-02 0.673D-01 0.132D+00 0.276D+00 0.525D+00
 Coeff-En:   0.000D+00 0.000D+00 0.000D+00 0.000D+00 0.104D-01 0.990D+00
 Coeff:      0.171D-02-0.234D-02 0.671D-01 0.132D+00 0.275D+00 0.527D+00
 Gap=     0.153 Goal=   None    Shift=    0.000
 RMSDP=4.59D-04 MaxDP=2.69D-02 DE=-1.52D-03 OVMax= 3.33D-03

 Cycle   7  Pass 1  IDiag  1:
 RMSU=  1.94D-04    CP:  7.89D-01  7.17D-01  6.29D-01  7.22D-01  8.81D-01
                    CP:  6.00D-01
 E= -893.294634223813     Delta-E=       -0.000111590191 Rises=F Damp=F
 DIIS: error= 1.75D-04 at cycle   7 NSaved=   7.
 NSaved= 7 IEnMin= 7 EnMin= -893.294634223813     IErMin= 7 ErrMin= 1.75D-04
 ErrMax= 1.75D-04  0.00D+00 EMaxC= 1.00D-01 BMatC= 1.15D-05 BMatP= 1.45D-04
 IDIUse=3 WtCom= 9.98D-01 WtEn= 1.75D-03
 Coeff-Com:  0.405D-03-0.218D-02 0.222D-01 0.472D-01 0.114D+00 0.298D+00
 Coeff-Com:  0.521D+00
 Coeff-En:   0.000D+00 0.000D+00 0.000D+00 0.000D+00 0.000D+00 0.367D-01
 Coeff-En:   0.963D+00
 Coeff:      0.404D-03-0.218D-02 0.221D-01 0.472D-01 0.114D+00 0.297D+00
 Coeff:      0.522D+00
 Gap=     0.153 Goal=   None    Shift=    0.000
 RMSDP=1.66D-04 MaxDP=8.45D-03 DE=-1.12D-04 OVMax= 1.80D-03

 Cycle   8  Pass 1  IDiag  1:
 RMSU=  6.55D-05    CP:  7.89D-01  7.17D-01  6.31D-01  7.21D-01  8.48D-01
                    CP:  6.36D-01  5.60D-01
 E= -893.294644636429     Delta-E=       -0.000010412616 Rises=F Damp=F
 DIIS: error= 7.67D-05 at cycle   8 NSaved=   8.
 NSaved= 8 IEnMin= 8 EnMin= -893.294644636429     IErMin= 8 ErrMin= 7.67D-05
 ErrMax= 7.67D-05  0.00D+00 EMaxC= 1.00D-01 BMatC= 2.03D-06 BMatP= 1.15D-05
 IDIUse=1 WtCom= 1.00D+00 WtEn= 0.00D+00
 Coeff-Com:  0.107D-03-0.135D-02 0.777D-02 0.178D-01 0.479D-01 0.143D+00
 Coeff-Com:  0.340D+00 0.444D+00
 Coeff:      0.107D-03-0.135D-02 0.777D-02 0.178D-01 0.479D-01 0.143D+00
 Coeff:      0.340D+00 0.444D+00
 Gap=     0.153 Goal=   None    Shift=    0.000
 RMSDP=4.81D-05 MaxDP=2.20D-03 DE=-1.04D-05 OVMax= 5.71D-04

 Cycle   9  Pass 1  IDiag  1:
 RMSU=  1.90D-05    CP:  7.89D-01  7.17D-01  6.29D-01  7.23D-01  8.59D-01
                    CP:  6.38D-01  6.22D-01  7.15D-01
 E= -893.294646419722     Delta-E=       -0.000001783294 Rises=F Damp=F
 DIIS: error= 3.28D-05 at cycle   9 NSaved=   9.
 NSaved= 9 IEnMin= 9 EnMin= -893.294646419722     IErMin= 9 ErrMin= 3.28D-05
 ErrMax= 3.28D-05  0.00D+00 EMaxC= 1.00D-01 BMatC= 3.46D-07 BMatP= 2.03D-06
 IDIUse=1 WtCom= 1.00D+00 WtEn= 0.00D+00
 Coeff-Com:  0.482D-04-0.682D-03 0.258D-02 0.622D-02 0.183D-01 0.596D-01
 Coeff-Com:  0.165D+00 0.311D+00 0.438D+00
 Coeff:      0.482D-04-0.682D-03 0.258D-02 0.622D-02 0.183D-01 0.596D-01
 Coeff:      0.165D+00 0.311D+00 0.438D+00
 Gap=     0.153 Goal=   None    Shift=    0.000
 RMSDP=1.44D-05 MaxDP=5.58D-04 DE=-1.78D-06 OVMax= 2.99D-04

 Cycle  10  Pass 1  IDiag  1:
 RMSU=  7.94D-06    CP:  7.89D-01  7.17D-01  6.29D-01  7.24D-01  8.62D-01
                    CP:  6.39D-01  6.27D-01  6.82D-01  7.58D-01
 E= -893.294646609843     Delta-E=       -0.000000190120 Rises=F Damp=F
 DIIS: error= 1.70D-05 at cycle  10 NSaved=  10.
 NSaved=10 IEnMin=10 EnMin= -893.294646609843     IErMin=10 ErrMin= 1.70D-05
 ErrMax= 1.70D-05  0.00D+00 EMaxC= 1.00D-01 BMatC= 1.09D-07 BMatP= 3.46D-07
 IDIUse=1 WtCom= 1.00D+00 WtEn= 0.00D+00
 Coeff-Com:  0.245D-04-0.178D-03-0.139D-03-0.214D-03 0.719D-03 0.692D-02
 Coeff-Com:  0.354D-01 0.129D+00 0.366D+00 0.462D+00
 Coeff:      0.245D-04-0.178D-03-0.139D-03-0.214D-03 0.719D-03 0.692D-02
 Coeff:      0.354D-01 0.129D+00 0.366D+00 0.462D+00
 Gap=     0.153 Goal=   None    Shift=    0.000
 RMSDP=7.42D-06 MaxDP=3.12D-04 DE=-1.90D-07 OVMax= 1.14D-04

 Cycle  11  Pass 1  IDiag  1:
 RMSU=  2.46D-06    CP:  7.89D-01  7.17D-01  6.29D-01  7.23D-01  8.61D-01
                    CP:  6.39D-01  6.16D-01  7.24D-01  7.62D-01  5.70D-01
 E= -893.294646699456     Delta-E=       -0.000000089613 Rises=F Damp=F
 DIIS: error= 3.46D-06 at cycle  11 NSaved=  11.
 NSaved=11 IEnMin=11 EnMin= -893.294646699456     IErMin=11 ErrMin= 3.46D-06
 ErrMax= 3.46D-06  0.00D+00 EMaxC= 1.00D-01 BMatC= 6.81D-09 BMatP= 1.09D-07
 IDIUse=1 WtCom= 1.00D+00 WtEn= 0.00D+00
 Coeff-Com:  0.172D-04-0.798D-04-0.236D-03-0.539D-03-0.756D-03 0.622D-03
 Coeff-Com:  0.121D-01 0.622D-01 0.207D+00 0.298D+00 0.421D+00
 Coeff:      0.172D-04-0.798D-04-0.236D-03-0.539D-03-0.756D-03 0.622D-03
 Coeff:      0.121D-01 0.622D-01 0.207D+00 0.298D+00 0.421D+00
 Gap=     0.153 Goal=   None    Shift=    0.000
 RMSDP=1.77D-06 MaxDP=7.96D-05 DE=-8.96D-08 OVMax= 2.62D-05

 Cycle  12  Pass 1  IDiag  1:
 RMSU=  1.10D-06    CP:  7.89D-01  7.17D-01  6.29D-01  7.23D-01  8.61D-01
                    CP:  6.39D-01  6.18D-01  7.20D-01  7.78D-01  5.96D-01
                    CP:  7.98D-01
 E= -893.294646704897     Delta-E=       -0.000000005441 Rises=F Damp=F
 DIIS: error= 1.24D-06 at cycle  12 NSaved=  12.
 NSaved=12 IEnMin=12 EnMin= -893.294646704897     IErMin=12 ErrMin= 1.24D-06
 ErrMax= 1.24D-06  0.00D+00 EMaxC= 1.00D-01 BMatC= 9.44D-10 BMatP= 6.81D-09
 IDIUse=1 WtCom= 1.00D+00 WtEn= 0.00D+00
 Coeff-Com:  0.862D-05-0.150D-04-0.104D-03-0.292D-03-0.682D-03-0.117D-02
 Coeff-Com: -0.308D-03 0.849D-02 0.460D-01 0.827D-01 0.279D+00 0.586D+00
 Coeff:      0.862D-05-0.150D-04-0.104D-03-0.292D-03-0.682D-03-0.117D-02
 Coeff:     -0.308D-03 0.849D-02 0.460D-01 0.827D-01 0.279D+00 0.586D+00
 Gap=     0.153 Goal=   None    Shift=    0.000
 RMSDP=7.16D-07 MaxDP=4.48D-05 DE=-5.44D-09 OVMax= 8.13D-06

 Cycle  13  Pass 1  IDiag  1:
 RMSU=  4.06D-07    CP:  7.89D-01  7.17D-01  6.29D-01  7.23D-01  8.61D-01
                    CP:  6.39D-01  6.18D-01  7.22D-01  7.86D-01  5.94D-01
                    CP:  7.84D-01  8.60D-01
 E= -893.294646705592     Delta-E=       -0.000000000696 Rises=F Damp=F
 DIIS: error= 2.59D-07 at cycle  13 NSaved=  13.
 NSaved=13 IEnMin=13 EnMin= -893.294646705592     IErMin=13 ErrMin= 2.59D-07
 ErrMax= 2.59D-07  0.00D+00 EMaxC= 1.00D-01 BMatC= 7.21D-11 BMatP= 9.44D-10
 IDIUse=1 WtCom= 1.00D+00 WtEn= 0.00D+00
 Coeff-Com:  0.398D-05-0.400D-05-0.387D-04-0.121D-03-0.332D-03-0.689D-03
 Coeff-Com: -0.106D-02-0.146D-03 0.937D-02 0.222D-01 0.125D+00 0.331D+00
 Coeff-Com:  0.515D+00
 Coeff:      0.398D-05-0.400D-05-0.387D-04-0.121D-03-0.332D-03-0.689D-03
 Coeff:     -0.106D-02-0.146D-03 0.937D-02 0.222D-01 0.125D+00 0.331D+00
 Coeff:      0.515D+00
 Gap=     0.153 Goal=   None    Shift=    0.000
 RMSDP=2.35D-07 MaxDP=1.48D-05 DE=-6.96D-10 OVMax= 2.23D-06

 Cycle  14  Pass 1  IDiag  1:
 RMSU=  1.49D-07    CP:  7.89D-01  7.17D-01  6.29D-01  7.23D-01  8.61D-01
                    CP:  6.39D-01  6.18D-01  7.23D-01  7.85D-01  5.99D-01
                    CP:  7.90D-01  8.14D-01  8.21D-01
 E= -893.294646705669     Delta-E=       -0.000000000077 Rises=F Damp=F
 DIIS: error= 9.57D-08 at cycle  14 NSaved=  14.
 NSaved=14 IEnMin=14 EnMin= -893.294646705669     IErMin=14 ErrMin= 9.57D-08
 ErrMax= 9.57D-08  0.00D+00 EMaxC= 1.00D-01 BMatC= 6.38D-12 BMatP= 7.21D-11
 IDIUse=1 WtCom= 1.00D+00 WtEn= 0.00D+00
 Coeff-Com:  0.946D-06-0.222D-06-0.440D-05-0.179D-04-0.760D-04-0.178D-03
 Coeff-Com: -0.493D-03-0.131D-02-0.201D-02-0.140D-02 0.207D-01 0.775D-01
 Coeff-Com:  0.253D+00 0.654D+00
 Coeff:      0.946D-06-0.222D-06-0.440D-05-0.179D-04-0.760D-04-0.178D-03
 Coeff:     -0.493D-03-0.131D-02-0.201D-02-0.140D-02 0.207D-01 0.775D-01
 Coeff:      0.253D+00 0.654D+00
 Gap=     0.153 Goal=   None    Shift=    0.000
 RMSDP=7.81D-08 MaxDP=5.72D-06 DE=-7.69D-11 OVMax= 1.40D-06

 Cycle  15  Pass 1  IDiag  1:
 RMSU=  4.59D-08    CP:  7.89D-01  7.17D-01  6.29D-01  7.23D-01  8.61D-01
                    CP:  6.39D-01  6.18D-01  7.23D-01  7.85D-01  5.97D-01
                    CP:  7.95D-01  8.41D-01  7.88D-01  8.97D-01
 E= -893.294646705689     Delta-E=       -0.000000000020 Rises=F Damp=F
 DIIS: error= 5.65D-08 at cycle  15 NSaved=  15.
 NSaved=15 IEnMin=15 EnMin= -893.294646705689     IErMin=15 ErrMin= 5.65D-08
 ErrMax= 5.65D-08  0.00D+00 EMaxC= 1.00D-01 BMatC= 1.82D-12 BMatP= 6.38D-12
 IDIUse=1 WtCom= 1.00D+00 WtEn= 0.00D+00
 Coeff-Com:  0.599D-07 0.467D-06 0.224D-05 0.501D-05-0.520D-05-0.242D-04
 Coeff-Com: -0.190D-03-0.877D-03-0.282D-02-0.442D-02-0.451D-02 0.284D-02
 Coeff-Com:  0.900D-01 0.422D+00 0.498D+00
 Coeff:      0.599D-07 0.467D-06 0.224D-05 0.501D-05-0.520D-05-0.242D-04
 Coeff:     -0.190D-03-0.877D-03-0.282D-02-0.442D-02-0.451D-02 0.284D-02
 Coeff:      0.900D-01 0.422D+00 0.498D+00
 Gap=     0.153 Goal=   None    Shift=    0.000
 RMSDP=5.29D-08 MaxDP=4.58D-06 DE=-2.00D-11 OVMax= 4.80D-07

 Cycle  16  Pass 1  IDiag  1:
 RMSU=  1.48D-08    CP:  7.89D-01  7.17D-01  6.29D-01  7.23D-01  8.61D-01
                    CP:  6.39D-01  6.18D-01  7.23D-01  7.86D-01  5.98D-01
                    CP:  7.97D-01  8.41D-01  8.35D-01  9.16D-01  6.18D-01
 E= -893.294646705688     Delta-E=        0.000000000001 Rises=F Damp=F
 DIIS: error= 1.00D-08 at cycle  16 NSaved=  16.
 NSaved=16 IEnMin=15 EnMin= -893.294646705689     IErMin=16 ErrMin= 1.00D-08
 ErrMax= 1.00D-08  0.00D+00 EMaxC= 1.00D-01 BMatC= 5.87D-14 BMatP= 1.82D-12
 IDIUse=1 WtCom= 1.00D+00 WtEn= 0.00D+00
 Coeff-Com: -0.328D-07 0.219D-06 0.127D-05 0.347D-05 0.290D-05 0.777D-06
 Coeff-Com: -0.505D-04-0.287D-03-0.107D-02-0.185D-02-0.349D-02-0.428D-02
 Coeff-Com:  0.212D-01 0.143D+00 0.226D+00 0.621D+00
 Coeff:     -0.328D-07 0.219D-06 0.127D-05 0.347D-05 0.290D-05 0.777D-06
 Coeff:     -0.505D-04-0.287D-03-0.107D-02-0.185D-02-0.349D-02-0.428D-02
 Coeff:      0.212D-01 0.143D+00 0.226D+00 0.621D+00
 Gap=     0.153 Goal=   None    Shift=    0.000
 RMSDP=8.43D-09 MaxDP=5.72D-07 DE= 1.36D-12 OVMax= 1.24D-07

 SCF Done:  E(RB3LYP) =  -893.294646706     A.U. after   16 cycles
            NFock= 16  Conv=0.84D-08     -V/T= 2.0092
 KE= 8.851504420634D+02 PE=-4.743559926973D+03 EE= 1.633246898064D+03
 Leave Link  502 at Fri Jun  4 10:03:45 2021, MaxMem=    33554432 cpu:       959.6
 (Enter /opt/app/gaussian09/e01/g09/l801.exe)
 DoSCS=F DFT=T ScalE2(SS,OS)=  1.000000  1.000000
 ExpMin= 4.38D-02 ExpMax= 5.48D+03 ExpMxC= 8.25D+02 IAcc=3 IRadAn=         5 AccDes= 0.00D+00
 HarFok:  IExCor=  205 AccDes= 0.00D+00 IRadAn=         5 IDoV=-2 UseB2=F ITyADJ=14
 ICtDFT= 12500011 ScaDFX=  1.000000  1.000000  1.000000  1.000000
 Largest valence mixing into a core orbital is  5.67D-05
 Largest core mixing into a valence orbital is  1.15D-05
 Range of M.O.s used for correlation:    20   370
 NBasis=   375 NAE=    65 NBE=    65 NFC=    19 NFV=     0
 NROrb=    351 NOA=    46 NOB=    46 NVA=   305 NVB=   305

 **** Warning!!: The largest alpha MO coefficient is  0.15247474D+03

 Leave Link  801 at Fri Jun  4 10:03:46 2021, MaxMem=    33554432 cpu:         1.2
 (Enter /opt/app/gaussian09/e01/g09/l914.exe)
 RHF ground state
 MDV=    33554432 DFT=T DoStab=F Mixed=T DoRPA=T DoScal=F NonHer=T
 Would need an additional          7468300000 words for in-memory AO integral storage.
 Making orbital integer symmetry assigments:
    40 initial guesses have been made.
 Convergence on wavefunction:    0.001000000000000
 Davidson Disk Diagonalization:  ConvIn= 1.00D-03 SkipCon=T Conv= 1.00D-03.
 Max sub-space:   200 roots to seek:    40 dimension of matrix:        28060
 Iteration     1 Dimension    40 NMult     0 NNew     40
 CISAX will form    40 AO SS matrices at one time.
 NMat=    40 NSing=    40 JSym2X= 0.
 FoFJK:  IHMeth= 1 ICntrl=       0 DoSepK=F KAlg= 0 I1Cent=   0 FoldK=F
 IRaf=         0 NMat=  80 IRICut=     100 DoRegI=T DoRafI=T ISym2E= 0.
 FoFCou: FMM=F IPFlag=           0 FMFlag=      100000 FMFlg1=           0
         NFxFlg=           0 DoJE=F BraDBF=F KetDBF=F FulRan=T
         wScrn=  0.000000 ICntrl=       0 IOpCl=  0 I1Cent=           0 NGrid=           0
         NMat0=   80 NMatS0=     40 NMatT0=    0 NMatD0=   80 NMtDS0=    0 NMtDT0=    0
 Symmetry not used in FoFCou.
 New state      2 was old state      5
 New state      5 was old state      2
 New state      6 was old state      9
 New state      8 was old state     11
 New state      9 was old state     12
 New state     10 was old state     21
 Excitation Energies [eV] at current iteration:
 Root      1 :     3.030952045814432
 Root      2 :     3.283695105530484
 Root      3 :     3.732932167654150
 Root      4 :     3.861095784276263
 Root      5 :     3.868170203064595
 Root      6 :     3.993301674706678
 Root      7 :     4.269692985494033
 Root      8 :     4.337915013858274
 Root      9 :     4.540333232977114
 Root     10 :     4.652541580823853
 Root     11 :     4.688386238270796
 Root     12 :     4.729027594675224
 Root     13 :     4.749825880259512
 Root     14 :     4.765648295168560
 Root     15 :     4.867995812493973
 Root     16 :     4.907513351270910
 Root     17 :     5.111124929112495
 Root     18 :     5.145418680687246
 Root     19 :     5.173859312857544
 Root     20 :     5.285770052642503
 Root     21 :     5.320845981998994
 Root     22 :     5.400246339455204
 Root     23 :     5.452392522978040
 Root     24 :     5.617445304135843
 Root     25 :     5.710726536889550
 Root     26 :     5.762899194843999
 Root     27 :     5.795891369464746
 Root     28 :     5.840358703416398
 Root     29 :     5.900749461191099
 Root     30 :     5.924361509220318
 Root     31 :     6.058278738103930
 Root     32 :     6.094533191523886
 Root     33 :     6.447191667416795
 Root     34 :     6.598395565194056
 Root     35 :     6.624566446158113
 Root     36 :     7.068961011744550
 Root     37 :     7.402886946573257
 Root     38 :     7.712925553950925
 Root     39 :     7.802694142554240
 Root     40 :     9.260201659550173
 Iteration     2 Dimension    60 NMult    40 NNew     20
 CISAX will form    20 AO SS matrices at one time.
 NMat=    20 NSing=    20 JSym2X= 0.
 Root      1 not converged, maximum delta is    0.032805763047569
 Root      2 not converged, maximum delta is    0.040363084616130
 Root      3 not converged, maximum delta is    0.050948940447866
 Root      4 not converged, maximum delta is    0.150575990294622
 Root      5 not converged, maximum delta is    0.136587166341570
 Root      6 not converged, maximum delta is    0.125101126917529
 Root      7 not converged, maximum delta is    0.024736217225076
 Root      8 not converged, maximum delta is    0.042261933136282
 Root      9 not converged, maximum delta is    0.245679246195253
 Root     10 not converged, maximum delta is    0.252244714719663
 Excitation Energies [eV] at current iteration:
 Root      1 :     2.955198581284967   Change is   -0.075753464529465
 Root      2 :     3.201723084097313   Change is   -0.081972021433170
 Root      3 :     3.632710020385538   Change is   -0.100222147268612
 Root      4 :     3.670445813293653   Change is   -0.190649970982609
 Root      5 :     3.718426783975660   Change is   -0.149743419088935
 Root      6 :     3.913233991852864   Change is   -0.080067682853814
 Root      7 :     4.236899606978820   Change is   -0.032793378515213
 Root      8 :     4.282202385822329   Change is   -0.055712628035945
 Root      9 :     4.500490912183762   Change is   -0.039842320793352
 Root     10 :     4.544667291764890   Change is   -0.107874289058963
 Iteration     3 Dimension    80 NMult    60 NNew     20
 CISAX will form    20 AO SS matrices at one time.
 NMat=    20 NSing=    20 JSym2X= 0.
 Root      1 not converged, maximum delta is    0.003134360101950
 Root      2 not converged, maximum delta is    0.002816947816390
 Root      3 not converged, maximum delta is    0.008306299600193
 Root      4 not converged, maximum delta is    0.020517556798266
 Root      5 not converged, maximum delta is    0.016734101706308
 Root      6 not converged, maximum delta is    0.010127018395640
 Root      7 not converged, maximum delta is    0.004515087594639
 Root      8 not converged, maximum delta is    0.004709201134256
 Root      9 not converged, maximum delta is    0.185070679525052
 Root     10 not converged, maximum delta is    0.143625135273955
 Excitation Energies [eV] at current iteration:
 Root      1 :     2.952681609173414   Change is   -0.002516972111553
 Root      2 :     3.200038701307750   Change is   -0.001684382789563
 Root      3 :     3.624167206699726   Change is   -0.008542813685812
 Root      4 :     3.664848765138732   Change is   -0.005597048154922
 Root      5 :     3.704197547284096   Change is   -0.014229236691565
 Root      6 :     3.906784531077746   Change is   -0.006449460775118
 Root      7 :     4.235047604023823   Change is   -0.001852002954998
 Root      8 :     4.277526902976246   Change is   -0.004675482846084
 Root      9 :     4.473775473550662   Change is   -0.026715438633100
 Root     10 :     4.525898833630079   Change is   -0.018768458134811
 Iteration     4 Dimension   100 NMult    80 NNew     20
 CISAX will form    20 AO SS matrices at one time.
 NMat=    20 NSing=    20 JSym2X= 0.
 Root      1 has converged.
 Root      2 has converged.
 Root      3 not converged, maximum delta is    0.001809414440477
 Root      4 not converged, maximum delta is    0.001933118662022
 Root      5 not converged, maximum delta is    0.001516349031525
 Root      6 not converged, maximum delta is    0.001402632700270
 Root      7 has converged.
 Root      8 not converged, maximum delta is    0.001149180747630
 Root      9 not converged, maximum delta is    0.015849002396109
 Root     10 not converged, maximum delta is    0.014988248484117
 Excitation Energies [eV] at current iteration:
 Root      1 :     2.952540155458414   Change is   -0.000141453715000
 Root      2 :     3.199901272460639   Change is   -0.000137428847111
 Root      3 :     3.623593367064090   Change is   -0.000573839635636
 Root      4 :     3.664269829463767   Change is   -0.000578935674964
 Root      5 :     3.703130750624171   Change is   -0.001066796659925
 Root      6 :     3.905995869619936   Change is   -0.000788661457810
 Root      7 :     4.234859998893268   Change is   -0.000187605130554
 Root      8 :     4.277074414479369   Change is   -0.000452488496876
 Root      9 :     4.470451945906814   Change is   -0.003323527643848
 Root     10 :     4.524747845448464   Change is   -0.001150988181615
 Iteration     5 Dimension   114 NMult   100 NNew     14
 CISAX will form    14 AO SS matrices at one time.
 NMat=    14 NSing=    14 JSym2X= 0.
 Root      1 has converged.
 Root      2 has converged.
 Root      3 has converged.
 Root      4 has converged.
 Root      5 has converged.
 Root      6 has converged.
 Root      7 has converged.
 Root      8 has converged.
 Root      9 not converged, maximum delta is    0.001617127531588
 Root     10 not converged, maximum delta is    0.002116760532243
 Excitation Energies [eV] at current iteration:
 Root      1 :     2.952538612087054   Change is   -0.000001543371360
 Root      2 :     3.199898095478253   Change is   -0.000003176982387
 Root      3 :     3.623565342188499   Change is   -0.000028024875591
 Root      4 :     3.664239977179314   Change is   -0.000029852284454
 Root      5 :     3.703060947497816   Change is   -0.000069803126355
 Root      6 :     3.905941784765728   Change is   -0.000054084854208
 Root      7 :     4.234852902383731   Change is   -0.000007096509537
 Root      8 :     4.277039429966572   Change is   -0.000034984512798
 Root      9 :     4.470184985384688   Change is   -0.000266960522126
 Root     10 :     4.524658827229889   Change is   -0.000089018218576
 Iteration     6 Dimension   118 NMult   114 NNew      4
 CISAX will form     4 AO SS matrices at one time.
 NMat=     4 NSing=     4 JSym2X= 0.
 Root      1 has converged.
 Root      2 has converged.
 Root      3 has converged.
 Root      4 has converged.
 Root      5 has converged.
 Root      6 has converged.
 Root      7 has converged.
 Root      8 has converged.
 Root      9 has converged.
 Root     10 has converged.
 Excitation Energies [eV] at current iteration:
 Root      1 :     2.952538247177893   Change is   -0.000000364909161
 Root      2 :     3.199897966417343   Change is   -0.000000129060910
 Root      3 :     3.623565316525880   Change is   -0.000000025662618
 Root      4 :     3.664239861484263   Change is   -0.000000115695051
 Root      5 :     3.703060873836082   Change is   -0.000000073661734
 Root      6 :     3.905941683418943   Change is   -0.000000101346785
 Root      7 :     4.234852103806505   Change is   -0.000000798577227
 Root      8 :     4.277039370238091   Change is   -0.000000059728480
 Root      9 :     4.470165772017883   Change is   -0.000019213366805
 Root     10 :     4.524652910066466   Change is   -0.000005917163422
 Convergence achieved on expansion vectors.
 ***********************************************************************
 Excited states from <AA,BB:AA,BB> singles matrix:
 ***********************************************************************
 
 1PDM for each excited state written to RWF  633
 Ground to excited state transition densities written to RWF  633
 Ground to excited state transition electric dipole moments (Au):
       state          X           Y           Z        Dip. S.      Osc.
         1         0.0801      0.0354     -0.0071      0.0077      0.0006
         2        -0.0791     -0.0232      0.0129      0.0070      0.0005
         3         0.7797      0.0168      0.0472      0.6104      0.0542
         4         0.2610     -0.1772     -0.0300      0.1004      0.0090
         5         0.6167      0.3170     -0.0338      0.4819      0.0437
         6        -0.2053     -0.1686     -0.0057      0.0706      0.0068
         7        -0.1551      0.0800     -0.0324      0.0315      0.0033
         8        -0.1140      0.2637     -0.0206      0.0830      0.0087
         9        -0.3445      0.8573      0.0601      0.8573      0.0939
        10        -0.3041      0.2522      0.0566      0.1592      0.0177
 Ground to excited state transition velocity dipole moments (Au):
       state          X           Y           Z        Dip. S.      Osc.
         1        -0.0089     -0.0038      0.0003      0.0001      0.0006
         2         0.0099      0.0022     -0.0011      0.0001      0.0006
         3        -0.1043     -0.0042     -0.0066      0.0109      0.0548
         4        -0.0338      0.0212      0.0039      0.0016      0.0079
         5        -0.0861     -0.0432      0.0049      0.0093      0.0456
         6         0.0302      0.0245      0.0003      0.0015      0.0070
         7         0.0244     -0.0131      0.0042      0.0008      0.0034
         8         0.0139     -0.0401      0.0018      0.0018      0.0077
         9         0.0523     -0.1310     -0.0090      0.0200      0.0811
        10         0.0477     -0.0368     -0.0089      0.0037      0.0149
 Ground to excited state transition magnetic dipole moments (Au):
       state          X           Y           Z
         1        -0.2647      0.7193      0.1087
         2        -0.0252      0.0666     -0.0308
         3         0.1777     -0.2040      0.4629
         4         0.0021      0.0082     -1.3398
         5        -0.0176      0.0250      0.2145
         6         0.2105     -0.4007      0.2879
         7         0.1074      0.0020     -0.2245
         8        -0.3743     -0.0167      0.9936
         9         0.0130      0.1900     -0.3507
        10         0.0083     -0.0980     -0.2135
 Ground to excited state transition velocity quadrupole moments (Au):
       state          XX          YY          ZZ          XY          XZ          YZ
         1         0.0202     -0.0033      0.0005     -0.0002     -0.0333     -0.0189
         2        -0.0403      0.0102      0.0023      0.0142     -0.0085      0.0050
         3        -0.1409     -0.0052     -0.0273      0.0318     -0.0264      0.0285
         4         0.2986     -0.1847     -0.0007     -0.2100     -0.0046     -0.0097
         5         0.6679     -0.0962      0.0221      0.2819      0.0002     -0.0132
         6         0.0565      0.0444     -0.0146      0.2837     -0.0070     -0.0153
         7         0.0425      0.0161      0.0264     -0.0673      0.0187     -0.0153
         8         0.1171     -0.1111      0.0187     -0.0881      0.0371     -0.0289
         9        -0.1621     -0.1890      0.0112      0.0615     -0.0168      0.0516
        10        -0.0997     -0.0842     -0.0128      0.0547     -0.0215      0.0455
 <0|del|b> * <b|rxdel|0> + <0|del|b> * <b|delr+rdel|0>
 Rotatory Strengths (R) in cgs (10**-40 erg-esu-cm/Gauss)
       state          XX          YY          ZZ    R(velocity)    E-M Angle
         1        -9.1923      8.2907     -1.3610     -0.7542       92.66
         2         0.5486     -0.4442     -0.5159     -0.1372       90.00
         3        -6.6599    -64.6489    -38.7903    -36.6997      111.69
         4       -15.3542    -11.0343     -0.8452     -9.0779       95.55
         5         3.5356      6.0180     -1.8425      2.5704       85.93
         6       -23.3407     14.5028     -7.7972     -5.5451       99.33
         7        -2.2872      3.6152      6.1980      2.5086       76.27
         8         8.5659     -8.2092    -12.6786     -4.1073       93.48
         9       -52.7093     15.2571    -53.1706    -30.2076      111.91
        10         8.9802     10.5177      5.5800      8.3593       65.68
 1/2[<0|r|b>*<b|rxdel|0> + (<0|rxdel|b>*<b|r|0>)*]
 Rotatory Strengths (R) in cgs (10**-40 erg-esu-cm/Gauss)
       state          XX          YY          ZZ     R(length)
         1        15.0001    -18.0021      0.5435     -0.8195
         2        -1.4098      1.0902      0.2799     -0.0132
         3       -97.9836      2.4308    -15.4356    -36.9961
         4        -0.3877      1.0266    -28.4173     -9.2595
         5         7.6595     -5.6004      5.1325      2.3972
         6        30.5548    -47.7887      1.1600     -5.3579
         7        11.7722     -0.1113     -5.1389      2.1740
         8       -30.1741      3.1083     14.4484     -4.2058
         9         3.1564   -115.1695     14.9015    -32.3705
        10         1.7872     17.4680      8.5432      9.2661
  1/2[<0|del|b>*<b|r|0> + (<0|r|b>*<b|del|0>)*] (Au)
       state          X           Y           Z        Dip. S.   Osc.(frdel)
         1        -0.0007     -0.0001     -0.0000      0.0008      0.0006
         2        -0.0008     -0.0001     -0.0000      0.0008      0.0006
         3        -0.0814     -0.0001     -0.0003      0.0817      0.0545
         4        -0.0088     -0.0038     -0.0001      0.0127      0.0085
         5        -0.0531     -0.0137     -0.0002      0.0670      0.0446
         6        -0.0062     -0.0041     -0.0000      0.0103      0.0069
         7        -0.0038     -0.0010     -0.0001      0.0050      0.0033
         8        -0.0016     -0.0106     -0.0000      0.0122      0.0081
         9        -0.0180     -0.1123     -0.0005      0.1309      0.0873
        10        -0.0145     -0.0093     -0.0005      0.0243      0.0162

 Excitation energies and oscillator strengths:
 
 Excited state symmetry could not be determined.
 Excited State   1:      Singlet-?Sym    2.9525 eV  419.92 nm  f=0.0006  <S**2>=0.000
      63 -> 66        -0.19669
      65 -> 66         0.65991
 This state for optimization and/or second-order correction.
 Total Energy, E(TD-HF/TD-KS) =  -893.186142917    
 Copying the excited state density for this state as the 1-particle RhoCI density.
 
 Excited state symmetry could not be determined.
 Excited State   2:      Singlet-?Sym    3.1999 eV  387.46 nm  f=0.0005  <S**2>=0.000
      61 -> 66         0.61368
      62 -> 66        -0.14928
      63 -> 66        -0.23383
      65 -> 67        -0.13706
 
 Excited state symmetry could not be determined.
 Excited State   3:      Singlet-?Sym    3.6236 eV  342.16 nm  f=0.0542  <S**2>=0.000
      62 -> 66        -0.27068
      62 -> 67        -0.10474
      63 -> 66         0.44991
      64 -> 66        -0.32347
      64 -> 67        -0.13182
      65 -> 66         0.13943
 
 Excited state symmetry could not be determined.
 Excited State   4:      Singlet-?Sym    3.6642 eV  338.36 nm  f=0.0090  <S**2>=0.000
      60 -> 66         0.17323
      61 -> 66         0.23806
      62 -> 66         0.55760
      63 -> 66         0.28442
 
 Excited state symmetry could not be determined.
 Excited State   5:      Singlet-?Sym    3.7031 eV  334.82 nm  f=0.0437  <S**2>=0.000
      62 -> 66        -0.24705
      63 -> 66         0.25020
      64 -> 66         0.56434
      65 -> 66         0.13245
 
 Excited state symmetry could not be determined.
 Excited State   6:      Singlet-?Sym    3.9059 eV  317.42 nm  f=0.0068  <S**2>=0.000
      57 -> 67        -0.15374
      57 -> 68         0.11443
      58 -> 67        -0.12981
      63 -> 66        -0.17993
      63 -> 67         0.32196
      63 -> 68        -0.21193
      64 -> 66         0.20629
      64 -> 67        -0.29585
      64 -> 68         0.19224
      65 -> 67         0.19854
      65 -> 68        -0.10721
 
 Excited state symmetry could not be determined.
 Excited State   7:      Singlet-?Sym    4.2349 eV  292.77 nm  f=0.0033  <S**2>=0.000
      59 -> 66        -0.15792
      59 -> 67        -0.12374
      61 -> 66         0.15829
      63 -> 67        -0.21541
      65 -> 67         0.59017
      65 -> 68         0.11100
 
 Excited state symmetry could not be determined.
 Excited State   8:      Singlet-?Sym    4.2770 eV  289.88 nm  f=0.0087  <S**2>=0.000
      59 -> 66         0.33583
      59 -> 67         0.34946
      59 -> 68        -0.21256
      60 -> 66         0.13994
      61 -> 67        -0.31478
      62 -> 67         0.13490
      65 -> 67         0.18425
 
 Excited state symmetry could not be determined.
 Excited State   9:      Singlet-?Sym    4.4702 eV  277.36 nm  f=0.0939  <S**2>=0.000
      58 -> 66         0.14209
      59 -> 66        -0.10959
      59 -> 67        -0.18277
      59 -> 68         0.11358
      60 -> 66         0.53736
      61 -> 66        -0.11008
      61 -> 67        -0.19905
      65 -> 68        -0.12520
 
 Excited state symmetry could not be determined.
 Excited State  10:      Singlet-?Sym    4.5247 eV  274.02 nm  f=0.0177  <S**2>=0.000
      59 -> 66         0.33629
      60 -> 66         0.24633
      61 -> 67         0.38687
      62 -> 67        -0.18695
      63 -> 67        -0.23014
      64 -> 67        -0.15155
      65 -> 68         0.16874
 SavETr:  write IOETrn=   770 NScale= 10 NData=  16 NLR=1 NState=   10 LETran=     190.
 Leave Link  914 at Fri Jun  4 10:58:56 2021, MaxMem=    33554432 cpu:      3309.3
 (Enter /opt/app/gaussian09/e01/g09/l601.exe)
 Copying SCF densities to generalized density rwf, IOpCl= 0 IROHF=0.

 **********************************************************************

            Population analysis using the SCF density.

 **********************************************************************

 Alpha  occ. eigenvalues --  -19.20819 -19.20777 -19.17575 -19.17549 -14.59303
 Alpha  occ. eigenvalues --  -10.31484 -10.31289 -10.28739 -10.25830 -10.25005
 Alpha  occ. eigenvalues --  -10.25005 -10.24479 -10.23943 -10.23914 -10.23863
 Alpha  occ. eigenvalues --  -10.23255 -10.23201 -10.22935 -10.22878  -1.24881
 Alpha  occ. eigenvalues --   -1.07902  -1.07573  -1.07378  -0.92393  -0.89999
 Alpha  occ. eigenvalues --   -0.84032  -0.82875  -0.79142  -0.79131  -0.73459
 Alpha  occ. eigenvalues --   -0.70591  -0.67961  -0.66610  -0.62263  -0.59701
 Alpha  occ. eigenvalues --   -0.58492  -0.57813  -0.55417  -0.54065  -0.53051
 Alpha  occ. eigenvalues --   -0.51613  -0.50642  -0.50393  -0.49472  -0.46954
 Alpha  occ. eigenvalues --   -0.46440  -0.46223  -0.46173  -0.45152  -0.42841
 Alpha  occ. eigenvalues --   -0.42176  -0.41749  -0.41258  -0.39406  -0.38351
 Alpha  occ. eigenvalues --   -0.38201  -0.33323  -0.32949  -0.32440  -0.30711
 Alpha  occ. eigenvalues --   -0.29688  -0.29193  -0.29054  -0.28811  -0.28486
 Alpha virt. eigenvalues --   -0.13153  -0.09936  -0.08077  -0.05397  -0.04214
 Alpha virt. eigenvalues --   -0.00579  -0.00125   0.01383   0.01783   0.01835
 Alpha virt. eigenvalues --    0.02402   0.02449   0.03779   0.03990   0.04663
 Alpha virt. eigenvalues --    0.05050   0.05342   0.05751   0.06558   0.07697
 Alpha virt. eigenvalues --    0.08037   0.08221   0.08971   0.09284   0.10014
 Alpha virt. eigenvalues --    0.10141   0.11321   0.11860   0.11877   0.12276
 Alpha virt. eigenvalues --    0.12663   0.12921   0.13578   0.14835   0.15130
 Alpha virt. eigenvalues --    0.15303   0.15637   0.15959   0.16389   0.16555
 Alpha virt. eigenvalues --    0.16847   0.17266   0.17535   0.17907   0.18295
 Alpha virt. eigenvalues --    0.18331   0.18815   0.19547   0.19943   0.20407
 Alpha virt. eigenvalues --    0.20759   0.20941   0.21078   0.21556   0.21748
 Alpha virt. eigenvalues --    0.22408   0.22714   0.23621   0.23717   0.24476
 Alpha virt. eigenvalues --    0.24812   0.25110   0.25362   0.25918   0.26115
 Alpha virt. eigenvalues --    0.26453   0.26914   0.27129   0.27656   0.27827
 Alpha virt. eigenvalues --    0.28555   0.29302   0.29858   0.30170   0.30562
 Alpha virt. eigenvalues --    0.30715   0.31109   0.31361   0.31570   0.32369
 Alpha virt. eigenvalues --    0.32952   0.33602   0.34953   0.35357   0.35601
 Alpha virt. eigenvalues --    0.35932   0.36520   0.37316   0.37696   0.38327
 Alpha virt. eigenvalues --    0.38509   0.39468   0.39773   0.40675   0.41694
 Alpha virt. eigenvalues --    0.42045   0.43198   0.45634   0.46060   0.46781
 Alpha virt. eigenvalues --    0.47755   0.50066   0.50443   0.51884   0.57185
 Alpha virt. eigenvalues --    0.58999   0.61628   0.64465   0.65575   0.65729
 Alpha virt. eigenvalues --    0.66158   0.67141   0.67261   0.67598   0.68285
 Alpha virt. eigenvalues --    0.70027   0.70962   0.71418   0.71588   0.72022
 Alpha virt. eigenvalues --    0.72927   0.73614   0.74000   0.75336   0.75801
 Alpha virt. eigenvalues --    0.77192   0.77823   0.78848   0.79514   0.80536
 Alpha virt. eigenvalues --    0.82544   0.83359   0.83887   0.86666   0.87246
 Alpha virt. eigenvalues --    0.88127   0.90560   0.91449   0.91533   0.92661
 Alpha virt. eigenvalues --    0.93129   0.97160   0.98192   1.00154   1.01265
 Alpha virt. eigenvalues --    1.01714   1.03152   1.04832   1.06602   1.07278
 Alpha virt. eigenvalues --    1.10089   1.11398   1.12744   1.12889   1.14539
 Alpha virt. eigenvalues --    1.15470   1.15649   1.17283   1.17691   1.19188
 Alpha virt. eigenvalues --    1.19927   1.21432   1.21731   1.22695   1.23027
 Alpha virt. eigenvalues --    1.23799   1.24478   1.26439   1.27506   1.28277
 Alpha virt. eigenvalues --    1.29060   1.29590   1.30641   1.31481   1.31967
 Alpha virt. eigenvalues --    1.32913   1.33547   1.34639   1.35999   1.36763
 Alpha virt. eigenvalues --    1.38400   1.38720   1.40216   1.41716   1.42835
 Alpha virt. eigenvalues --    1.43494   1.43844   1.44278   1.44433   1.45101
 Alpha virt. eigenvalues --    1.46494   1.48294   1.49370   1.50935   1.52344
 Alpha virt. eigenvalues --    1.57327   1.61161   1.62695   1.63183   1.65877
 Alpha virt. eigenvalues --    1.68826   1.71934   1.73143   1.73694   1.76674
 Alpha virt. eigenvalues --    1.77149   1.78145   1.78886   1.80371   1.81240
 Alpha virt. eigenvalues --    1.82533   1.83057   1.84366   1.85129   1.86430
 Alpha virt. eigenvalues --    1.86769   1.88306   1.91053   1.92285   1.92508
 Alpha virt. eigenvalues --    1.93992   1.97309   1.98656   1.99276   2.01733
 Alpha virt. eigenvalues --    2.02358   2.03772   2.04828   2.05845   2.06394
 Alpha virt. eigenvalues --    2.08679   2.11645   2.12567   2.13465   2.15206
 Alpha virt. eigenvalues --    2.15353   2.17881   2.19130   2.20193   2.21529
 Alpha virt. eigenvalues --    2.23888   2.24542   2.25288   2.26547   2.27160
 Alpha virt. eigenvalues --    2.27472   2.29434   2.36291   2.38661   2.42255
 Alpha virt. eigenvalues --    2.45951   2.48930   2.49135   2.51263   2.53072
 Alpha virt. eigenvalues --    2.54760   2.57439   2.58050   2.60241   2.60956
 Alpha virt. eigenvalues --    2.65274   2.66808   2.69094   2.69830   2.70754
 Alpha virt. eigenvalues --    2.72485   2.73507   2.74267   2.76073   2.80053
 Alpha virt. eigenvalues --    2.82801   2.84652   2.85520   2.92297   2.95910
 Alpha virt. eigenvalues --    2.99299   3.01843   3.03664   3.05722   3.12536
 Alpha virt. eigenvalues --    3.16821   3.20878   3.24030   3.32806   3.40335
 Alpha virt. eigenvalues --    3.46798   4.11045   4.20737   4.22325   4.23146
 Alpha virt. eigenvalues --    4.28158   4.29370   4.29724   4.31165   4.34244
 Alpha virt. eigenvalues --    4.39509   4.40591   4.42512   4.44358   4.50328
 Alpha virt. eigenvalues --    4.62083   4.67087   4.71265   4.79697   5.04333
     Molecular Orbital Coefficients:
                           1         2         3         4         5
                           O         O         O         O         O
     Eigenvalues --   -19.20819 -19.20777 -19.17575 -19.17549 -14.59303
   1 1   C  1S          0.00000   0.00000  -0.00000   0.00001   0.00000
   2        2S          0.00001  -0.00000  -0.00001   0.00003   0.00001
   3        2PX         0.00000   0.00000   0.00000   0.00001   0.00000
   4        2PY        -0.00000  -0.00000  -0.00000  -0.00000   0.00000
   5        2PZ        -0.00000   0.00000  -0.00000  -0.00000  -0.00000
   6        3S         -0.00011  -0.00003   0.00028  -0.00027  -0.00002
   7        3PX        -0.00003  -0.00003   0.00023  -0.00029  -0.00004
   8        3PY         0.00001  -0.00004  -0.00003   0.00001   0.00002
   9        3PZ        -0.00000   0.00000  -0.00000   0.00001   0.00000
  10        4S         -0.00756  -0.00903   0.01594   0.00552  -0.00072
  11        4PX        -0.00122  -0.00093   0.00234   0.00136  -0.00028
  12        4PY        -0.00037   0.00657   0.00174   0.00725  -0.00084
  13        4PZ         0.00024   0.00016  -0.00014   0.00016  -0.00002
  14        5XX         0.00000   0.00000   0.00000  -0.00001   0.00000
  15        5YY         0.00000   0.00000  -0.00000  -0.00001  -0.00000
  16        5ZZ         0.00000   0.00000  -0.00000   0.00002   0.00000
  17        5XY        -0.00000  -0.00000   0.00000  -0.00001   0.00000
  18        5XZ         0.00000   0.00000   0.00000   0.00000   0.00000
  19        5YZ         0.00000   0.00000   0.00000  -0.00000   0.00000
  20 2   C  1S          0.00000  -0.00000   0.00001  -0.00000  -0.00000
  21        2S          0.00001  -0.00001   0.00004  -0.00004  -0.00000
  22        2PX         0.00000   0.00000   0.00000  -0.00001  -0.00000
  23        2PY         0.00000  -0.00000  -0.00000   0.00002  -0.00000
  24        2PZ        -0.00000   0.00000   0.00000   0.00000  -0.00000
  25        3S          0.00004   0.00027  -0.00060   0.00008   0.00005
  26        3PX         0.00002   0.00009  -0.00028   0.00002   0.00003
  27        3PY        -0.00009  -0.00007   0.00021  -0.00015   0.00006
  28        3PZ         0.00000  -0.00003   0.00000  -0.00000  -0.00000
  29        4S          0.00533   0.02843  -0.00823   0.00002   0.00144
  30        4PX        -0.00082   0.01057   0.00363   0.00822  -0.00063
  31        4PY        -0.00142   0.00090   0.00436   0.00335  -0.00047
  32        4PZ        -0.00025  -0.00041  -0.00008  -0.00031   0.00004
  33        5XX         0.00000   0.00000  -0.00001   0.00000   0.00000
  34        5YY         0.00000  -0.00000   0.00000   0.00002  -0.00000
  35        5ZZ         0.00000  -0.00000   0.00001   0.00001   0.00000
  36        5XY        -0.00000  -0.00000  -0.00000   0.00004   0.00000
  37        5XZ         0.00000  -0.00000   0.00000   0.00000  -0.00000
  38        5YZ        -0.00000   0.00000  -0.00000  -0.00000  -0.00000
  39 3   C  1S         -0.00000   0.00000   0.00001  -0.00000  -0.00000
  40        2S         -0.00001   0.00001   0.00002   0.00008  -0.00000
  41        2PX        -0.00000  -0.00001   0.00003   0.00000  -0.00000
  42        2PY        -0.00000   0.00000  -0.00003  -0.00002   0.00000
  43        2PZ         0.00000  -0.00000  -0.00000  -0.00000  -0.00000
  44        3S          0.00006  -0.00027   0.00016  -0.00045   0.00001
  45        3PX         0.00017   0.00024  -0.00053  -0.00040  -0.00001
  46        3PY         0.00019   0.00023   0.00001   0.00007  -0.00032
  47        3PZ        -0.00001   0.00002   0.00006   0.00001   0.00001
  48        4S          0.00640  -0.00325   0.00712   0.00010  -0.00027
  49        4PX         0.00234   0.02111   0.00330   0.00883  -0.00023
  50        4PY        -0.00019  -0.00478   0.00289  -0.00268  -0.00041
  51        4PZ         0.00017  -0.00109   0.00028  -0.00050  -0.00006
  52        5XX        -0.00000  -0.00000   0.00000   0.00001  -0.00000
  53        5YY        -0.00000  -0.00000   0.00004  -0.00013   0.00000
  54        5ZZ        -0.00000   0.00000   0.00002  -0.00001  -0.00000
  55        5XY        -0.00000   0.00000  -0.00001   0.00001  -0.00001
  56        5XZ        -0.00000   0.00000   0.00000  -0.00000   0.00000
  57        5YZ        -0.00000   0.00000  -0.00000  -0.00000  -0.00000
  58 4   C  1S          0.00000  -0.00000  -0.00001   0.00000   0.00000
  59        2S          0.00000   0.00000   0.00005   0.00001   0.00001
  60        2PX         0.00001   0.00001  -0.00001  -0.00001  -0.00000
  61        2PY        -0.00000  -0.00001   0.00001   0.00005   0.00001
  62        2PZ        -0.00000   0.00000   0.00001   0.00000   0.00000
  63        3S          0.00003  -0.00005  -0.00003   0.00029  -0.00002
  64        3PX        -0.00039  -0.00039  -0.00003  -0.00025   0.00006
  65        3PY        -0.00002   0.00016  -0.00010  -0.00017  -0.00037
  66        3PZ         0.00003   0.00004  -0.00008   0.00002  -0.00005
  67        4S         -0.01083  -0.00761  -0.00704  -0.00499  -0.00004
  68        4PX        -0.00854  -0.01385  -0.00316  -0.00355   0.00052
  69        4PY        -0.00622  -0.01643   0.00322  -0.00529   0.00028
  70        4PZ        -0.00017   0.00025  -0.00022   0.00000   0.00006
  71        5XX        -0.00001  -0.00001  -0.00006   0.00001  -0.00001
  72        5YY         0.00000   0.00000  -0.00008   0.00002   0.00000
  73        5ZZ         0.00000   0.00000  -0.00002   0.00002   0.00000
  74        5XY         0.00001  -0.00000   0.00008  -0.00002   0.00000
  75        5XZ        -0.00000   0.00001   0.00001  -0.00000  -0.00000
  76        5YZ        -0.00000   0.00000  -0.00001   0.00000   0.00000
  77 5   C  1S          0.00000   0.00000  -0.00000   0.00001  -0.00000
  78        2S          0.00001   0.00000  -0.00005   0.00003   0.00000
  79        2PX         0.00001   0.00000   0.00001  -0.00000  -0.00001
  80        2PY         0.00000  -0.00000  -0.00002   0.00000   0.00000
  81        2PZ        -0.00000  -0.00000  -0.00001  -0.00000   0.00000
  82        3S         -0.00014  -0.00006   0.00028  -0.00047  -0.00022
  83        3PX        -0.00009   0.00002  -0.00006   0.00002   0.00007
  84        3PY        -0.00017  -0.00007   0.00016  -0.00024  -0.00009
  85        3PZ        -0.00000   0.00001   0.00006  -0.00001  -0.00001
  86        4S         -0.01592  -0.02232   0.01157   0.00122  -0.00109
  87        4PX        -0.00255  -0.01215   0.00078  -0.00619   0.00168
  88        4PY        -0.00282  -0.00680   0.00242  -0.00189   0.00029
  89        4PZ         0.00034   0.00033  -0.00011   0.00023  -0.00009
  90        5XX         0.00000   0.00001   0.00005  -0.00000  -0.00001
  91        5YY        -0.00001  -0.00001  -0.00003  -0.00000   0.00000
  92        5ZZ         0.00000   0.00000   0.00001   0.00001  -0.00000
  93        5XY        -0.00000   0.00000  -0.00001  -0.00000  -0.00000
  94        5XZ        -0.00000  -0.00000  -0.00000   0.00000   0.00000
  95        5YZ         0.00000  -0.00000   0.00000  -0.00000   0.00000
  96 6   C  1S          0.00000   0.00000   0.00001  -0.00000  -0.00000
  97        2S          0.00001   0.00002   0.00004  -0.00001  -0.00001
  98        2PX        -0.00000   0.00000   0.00001   0.00000   0.00000
  99        2PY         0.00000   0.00000   0.00001   0.00000  -0.00000
 100        2PZ        -0.00000   0.00000  -0.00000   0.00000  -0.00000
 101        3S         -0.00001  -0.00006  -0.00039   0.00028   0.00015
 102        3PX        -0.00000   0.00000  -0.00024   0.00015   0.00008
 103        3PY         0.00004  -0.00002  -0.00018   0.00018   0.00003
 104        3PZ         0.00001  -0.00001  -0.00000  -0.00000  -0.00000
 105        4S          0.00356   0.00123  -0.00782  -0.00180   0.00180
 106        4PX         0.00033  -0.00559  -0.00116  -0.00506   0.00099
 107        4PY         0.00121   0.00605  -0.00178   0.00340  -0.00057
 108        4PZ        -0.00017   0.00058   0.00017   0.00040  -0.00007
 109        5XX        -0.00000   0.00000  -0.00001   0.00000   0.00000
 110        5YY        -0.00000   0.00000   0.00001   0.00000  -0.00000
 111        5ZZ         0.00000   0.00001   0.00002  -0.00000  -0.00000
 112        5XY         0.00000   0.00000   0.00000   0.00000  -0.00000
 113        5XZ         0.00000  -0.00000   0.00000  -0.00000  -0.00000
 114        5YZ         0.00000  -0.00000  -0.00000   0.00000   0.00000
 115 7   C  1S          0.00001   0.00001  -0.00000  -0.00003  -0.00000
 116        2S          0.00003   0.00005  -0.00001   0.00034  -0.00001
 117        2PX         0.00000   0.00000  -0.00001  -0.00011  -0.00000
 118        2PY        -0.00000  -0.00000  -0.00000   0.00028   0.00001
 119        2PZ        -0.00000   0.00000   0.00001   0.00000  -0.00000
 120        3S         -0.00034  -0.00071   0.00032   0.00001  -0.00024
 121        3PX         0.00008  -0.00008   0.00018   0.00064  -0.00024
 122        3PY         0.00008   0.00002  -0.00028  -0.00170  -0.00036
 123        3PZ         0.00002  -0.00002  -0.00005  -0.00002   0.00001
 124        4S          0.00328  -0.00162   0.00726  -0.00432  -0.00048
 125        4PX         0.00076   0.00286   0.00961  -0.00034  -0.00070
 126        4PY         0.00148   0.00298   0.00211   0.00427  -0.00003
 127        4PZ         0.00033  -0.00043  -0.00057   0.00000   0.00007
 128        5XX         0.00001   0.00000  -0.00000  -0.00017   0.00000
 129        5YY         0.00001   0.00000   0.00002  -0.00046  -0.00001
 130        5ZZ         0.00001   0.00002   0.00000  -0.00019  -0.00000
 131        5XY        -0.00000   0.00000  -0.00002   0.00015  -0.00000
 132        5XZ         0.00000   0.00000   0.00000   0.00000   0.00000
 133        5YZ         0.00000  -0.00000  -0.00000  -0.00001   0.00000
 134 8   C  1S         -0.00001  -0.00001  -0.00003   0.00000  -0.00000
 135        2S         -0.00003  -0.00004   0.00034  -0.00000  -0.00004
 136        2PX         0.00001   0.00001   0.00011   0.00000   0.00003
 137        2PY        -0.00001  -0.00001  -0.00027  -0.00000   0.00001
 138        2PZ         0.00000   0.00001  -0.00005  -0.00000  -0.00000
 139        3S          0.00041   0.00032   0.00048   0.00034   0.00106
 140        3PX        -0.00024  -0.00040  -0.00028  -0.00000   0.00067
 141        3PY        -0.00007  -0.00002   0.00128   0.00017   0.00070
 142        3PZ         0.00001  -0.00006   0.00026   0.00001   0.00012
 143        4S          0.00548  -0.00085   0.01397   0.00143  -0.00142
 144        4PX        -0.01032  -0.01330   0.00680  -0.00313   0.00120
 145        4PY        -0.00037  -0.00231  -0.00130  -0.00114   0.00038
 146        4PZ         0.00004   0.00007   0.00048   0.00016  -0.00022
 147        5XX        -0.00000   0.00001  -0.00019  -0.00001   0.00005
 148        5YY        -0.00001  -0.00000  -0.00043   0.00002   0.00000
 149        5ZZ        -0.00001  -0.00001  -0.00021   0.00001   0.00000
 150        5XY        -0.00001  -0.00001   0.00016  -0.00001   0.00002
 151        5XZ         0.00000   0.00001   0.00003  -0.00000   0.00000
 152        5YZ        -0.00001   0.00000  -0.00005   0.00000   0.00000
 153 9   C  1S         -0.00000  -0.00000  -0.00000   0.00000  -0.00001
 154        2S         -0.00000  -0.00005   0.00008   0.00000   0.00000
 155        2PX         0.00001   0.00000  -0.00000  -0.00002  -0.00001
 156        2PY         0.00000  -0.00000   0.00000   0.00003  -0.00006
 157        2PZ        -0.00002   0.00003   0.00001  -0.00000  -0.00000
 158        3S         -0.00019   0.00025  -0.00027   0.00047   0.00130
 159        3PX        -0.00024   0.00027   0.00010   0.00036   0.00083
 160        3PY        -0.00009  -0.00024   0.00061   0.00026   0.00228
 161        3PZ         0.00012  -0.00011  -0.00004   0.00004   0.00010
 162        4S         -0.00790  -0.03391   0.01313  -0.00437  -0.00150
 163        4PX         0.00259   0.00677   0.00289   0.00359  -0.00066
 164        4PY        -0.01271  -0.02272  -0.00443  -0.00566   0.00036
 165        4PZ         0.00042  -0.00210  -0.00048  -0.00049   0.00043
 166        5XX         0.00000   0.00001   0.00000   0.00000  -0.00003
 167        5YY        -0.00000   0.00003  -0.00012   0.00004  -0.00003
 168        5ZZ        -0.00000  -0.00000  -0.00001   0.00001  -0.00001
 169        5XY         0.00001  -0.00002   0.00001  -0.00001   0.00000
 170        5XZ         0.00000   0.00001  -0.00000  -0.00000  -0.00001
 171        5YZ         0.00001  -0.00002  -0.00002  -0.00000  -0.00000
 172 10  C  1S          0.00000  -0.00000   0.00001  -0.00000   0.00001
 173        2S          0.00001  -0.00001   0.00004   0.00008   0.00007
 174        2PX        -0.00000   0.00001   0.00000   0.00001  -0.00001
 175        2PY        -0.00000   0.00000  -0.00004  -0.00002   0.00001
 176        2PZ        -0.00001   0.00001   0.00000  -0.00000  -0.00000
 177        3S         -0.00002   0.00030  -0.00047  -0.00050  -0.00166
 178        3PX         0.00003  -0.00030   0.00016   0.00016  -0.00093
 179        3PY         0.00001  -0.00012   0.00045   0.00047   0.00085
 180        3PZ        -0.00002  -0.00000   0.00004  -0.00001  -0.00002
 181        4S          0.01226   0.02659  -0.00469   0.00224  -0.00018
 182        4PX         0.00431   0.00349   0.00996  -0.00030  -0.00094
 183        4PY        -0.01426  -0.02000   0.00077  -0.00920   0.00046
 184        4PZ        -0.00136   0.00156   0.00061   0.00017  -0.00020
 185        5XX         0.00000   0.00000   0.00001  -0.00006  -0.00001
 186        5YY         0.00000  -0.00001   0.00002  -0.00007  -0.00001
 187        5ZZ         0.00001  -0.00000   0.00002  -0.00001   0.00001
 188        5XY        -0.00000  -0.00000  -0.00002   0.00008   0.00002
 189        5XZ        -0.00000   0.00000   0.00000   0.00000  -0.00000
 190        5YZ         0.00001  -0.00001  -0.00001  -0.00000   0.00000
 191 11  C  1S          0.00000  -0.00000   0.00000  -0.00000  -0.00001
 192        2S          0.00001  -0.00001   0.00002  -0.00003  -0.00003
 193        2PX        -0.00000   0.00000   0.00000  -0.00002  -0.00000
 194        2PY         0.00000   0.00000   0.00000   0.00002   0.00000
 195        2PZ        -0.00001   0.00001   0.00001   0.00000  -0.00000
 196        3S         -0.00002   0.00021  -0.00021   0.00006   0.00061
 197        3PX         0.00009   0.00004   0.00015   0.00019   0.00037
 198        3PY        -0.00002  -0.00018   0.00006  -0.00013  -0.00045
 199        3PZ         0.00004  -0.00002  -0.00003   0.00000   0.00000
 200        4S          0.01236   0.02110  -0.00916  -0.00073   0.00229
 201        4PX        -0.00435  -0.00324   0.00242  -0.00794   0.00070
 202        4PY        -0.00313  -0.00363   0.00188  -0.00316  -0.00009
 203        4PZ         0.00030  -0.00082  -0.00007  -0.00011   0.00007
 204        5XX         0.00001   0.00000   0.00000   0.00004  -0.00001
 205        5YY         0.00001   0.00000   0.00000  -0.00002   0.00000
 206        5ZZ         0.00001  -0.00000   0.00001   0.00001  -0.00001
 207        5XY         0.00000   0.00000  -0.00000  -0.00001  -0.00000
 208        5XZ        -0.00000  -0.00000   0.00000  -0.00000  -0.00000
 209        5YZ         0.00000  -0.00000   0.00000  -0.00000  -0.00000
 210 12  H  1S          0.00001   0.00001  -0.00000   0.00003   0.00002
 211        2S          0.00001   0.00001   0.00008   0.00027   0.00018
 212 13  C  1S         -0.00000  -0.00000   0.00001   0.00001   0.00001
 213        2S          0.00000  -0.00000   0.00003   0.00003   0.00003
 214        2PX        -0.00001   0.00000  -0.00001  -0.00001   0.00000
 215        2PY         0.00000  -0.00001   0.00001  -0.00000   0.00001
 216        2PZ        -0.00000   0.00000   0.00000  -0.00000  -0.00000
 217        3S          0.00020  -0.00003  -0.00034  -0.00038  -0.00119
 218        3PX         0.00016   0.00007   0.00007   0.00023   0.00024
 219        3PY        -0.00009   0.00004   0.00007   0.00022   0.00045
 220        3PZ        -0.00004   0.00004  -0.00000   0.00000   0.00001
 221        4S         -0.01204  -0.00653  -0.00193   0.00547  -0.00120
 222        4PX        -0.00259   0.00064  -0.00012  -0.00548   0.00095
 223        4PY         0.00409   0.00208  -0.00048   0.00393  -0.00024
 224        4PZ        -0.00013   0.00088  -0.00007   0.00005  -0.00005
 225        5XX        -0.00000  -0.00000   0.00001  -0.00002   0.00001
 226        5YY        -0.00001  -0.00000   0.00000   0.00000   0.00001
 227        5ZZ         0.00000   0.00000   0.00001   0.00002   0.00000
 228        5XY         0.00000  -0.00000   0.00000   0.00000  -0.00001
 229        5XZ        -0.00000   0.00000  -0.00000   0.00000  -0.00000
 230        5YZ         0.00001  -0.00001   0.00000  -0.00000  -0.00000
 231 14  C  1S          0.00001  -0.00000   0.00000  -0.00000  -0.00001
 232        2S         -0.00001  -0.00001   0.00000  -0.00002   0.00000
 233        2PX         0.00001   0.00001  -0.00000   0.00000   0.00001
 234        2PY        -0.00001   0.00001  -0.00001  -0.00000  -0.00001
 235        2PZ        -0.00004   0.00002  -0.00000   0.00000   0.00001
 236        3S         -0.00015  -0.00014   0.00049   0.00033   0.00126
 237        3PX         0.00007   0.00000  -0.00023  -0.00030  -0.00109
 238        3PY        -0.00034   0.00004  -0.00002   0.00005   0.00036
 239        3PZ         0.00013  -0.00015  -0.00000  -0.00001  -0.00004
 240        4S          0.00408   0.01921  -0.02766   0.00282   0.00077
 241        4PX        -0.00156  -0.00235   0.00283   0.00049  -0.00033
 242        4PY         0.00856  -0.00232   0.00537   0.00448  -0.00108
 243        4PZ        -0.00043  -0.00089  -0.00016  -0.00014   0.00012
 244        5XX         0.00001  -0.00000   0.00000   0.00000  -0.00000
 245        5YY         0.00007  -0.00001   0.00000  -0.00000  -0.00009
 246        5ZZ         0.00002  -0.00000   0.00001  -0.00000  -0.00002
 247        5XY        -0.00001   0.00001  -0.00002   0.00000   0.00002
 248        5XZ        -0.00001   0.00001   0.00000  -0.00000  -0.00000
 249        5YZ         0.00002  -0.00001   0.00000   0.00000   0.00001
 250 15  C  1S          0.00001   0.00001   0.00001   0.00001  -0.00001
 251        2S          0.00011   0.00011   0.00000   0.00005  -0.00002
 252        2PX         0.00001  -0.00002   0.00002  -0.00000   0.00010
 253        2PY         0.00001  -0.00000  -0.00002  -0.00000  -0.00018
 254        2PZ        -0.00004   0.00001  -0.00001  -0.00000   0.00002
 255        3S         -0.00034  -0.00056  -0.00029  -0.00063  -0.00069
 256        3PX        -0.00056   0.00028  -0.00033   0.00027   0.00092
 257        3PY         0.00023   0.00040  -0.00065  -0.00028  -0.00203
 258        3PZ         0.00019  -0.00009   0.00008   0.00001   0.00003
 259        4S          0.00382  -0.00991  -0.00220   0.00004   0.00040
 260        4PX         0.00830  -0.00624   0.01663   0.00340  -0.00121
 261        4PY        -0.00179  -0.00361   0.01271   0.00114   0.00052
 262        4PZ         0.00227  -0.00056   0.00084   0.00024  -0.00034
 263        5XX        -0.00006  -0.00001   0.00004  -0.00000   0.00005
 264        5YY        -0.00006  -0.00008   0.00007   0.00000   0.00025
 265        5ZZ        -0.00001  -0.00003   0.00002   0.00002  -0.00005
 266        5XY         0.00006   0.00002   0.00004   0.00000  -0.00015
 267        5XZ         0.00004  -0.00002   0.00001  -0.00000   0.00002
[...]
  57         O                -0.333235          2.066535
  58         O                -0.329489          2.309762
  59         O                -0.324395          2.378916
  60         O                -0.307111          1.438164
  61         O                -0.296884          2.221454
  62         O                -0.291927          1.306048
  63         O                -0.290540          1.699293
  64         O                -0.288113          1.531563
  65         O                -0.284859          2.242603
  66         V                -0.131529          1.727753
  67         V                -0.099363          1.988435
  68         V                -0.080766          2.041749
  69         V                -0.053966          1.368014
  70         V                -0.042141          1.440958
  71         V                -0.005786          0.368236
  72         V                -0.001251          0.344789
  73         V                 0.013830          0.330451
  74         V                 0.017831          1.411086
  75         V                 0.018346          0.315075
  76         V                 0.024018          1.356228
  77         V                 0.024492          0.640609
  78         V                 0.037787          0.398839
  79         V                 0.039899          0.419158
  80         V                 0.046631          0.339076
  81         V                 0.050500          0.363943
  82         V                 0.053416          0.267393
  83         V                 0.057515          0.463783
  84         V                 0.065584          0.288607
  85         V                 0.076970          0.370993
  86         V                 0.080373          0.323095
  87         V                 0.082213          0.391822
  88         V                 0.089708          0.669093
  89         V                 0.092837          0.675602
  90         V                 0.100140          1.064204
  91         V                 0.101405          0.446554
  92         V                 0.113215          0.714306
  93         V                 0.118602          0.801248
  94         V                 0.118767          0.426567
  95         V                 0.122760          0.442181
  96         V                 0.126626          0.490306
  97         V                 0.129205          0.501161
  98         V                 0.135780          0.598108
  99         V                 0.148354          0.663836
 100         V                 0.151301          0.643767
 101         V                 0.153027          0.538242
 102         V                 0.156365          0.532263
 103         V                 0.159589          0.885446
 104         V                 0.163891          0.969102
 105         V                 0.165548          0.899850
 106         V                 0.168472          0.940488
 107         V                 0.172660          0.571758
 108         V                 0.175350          0.457835
 109         V                 0.179073          1.283107
 110         V                 0.182955          0.736775
 111         V                 0.183312          0.551656
 112         V                 0.188147          1.032720
 113         V                 0.195465          0.824301
 114         V                 0.199430          1.461188
 115         V                 0.204070          0.818052
 116         V                 0.207586          1.067311
 117         V                 0.209407          0.765217
 118         V                 0.210781          0.909062
 119         V                 0.215558          0.696453
 120         V                 0.217483          0.644734
 121         V                 0.224076          0.743676
 122         V                 0.227138          0.770834
 123         V                 0.236212          0.994769
 124         V                 0.237170          1.023738
 125         V                 0.244763          0.684124
 126         V                 0.248124          1.148966
 127         V                 0.251096          1.410087
 128         V                 0.253620          1.183611
 129         V                 0.259183          0.986730
 130         V                 0.261154          1.042151
 131         V                 0.264535          1.269607
 132         V                 0.269141          1.105554
 133         V                 0.271292          1.041333
 134         V                 0.276564          1.433600
 135         V                 0.278268          0.842420
 136         V                 0.285549          0.900698
 137         V                 0.293023          1.007335
 138         V                 0.298581          1.107798
 139         V                 0.301703          1.070557
 140         V                 0.305623          1.050166
 141         V                 0.307146          1.220781
 142         V                 0.311092          1.107315
 143         V                 0.313606          1.059838
 144         V                 0.315703          1.013582
 145         V                 0.323688          1.382524
 146         V                 0.329516          1.005764
 147         V                 0.336023          1.113297
 148         V                 0.349530          1.089120
 149         V                 0.353574          1.297279
 150         V                 0.356008          1.109895
 151         V                 0.359321          1.340028
 152         V                 0.365196          1.336645
 153         V                 0.373157          1.267323
 154         V                 0.376960          1.037698
 155         V                 0.383272          1.977678
 156         V                 0.385089          1.193502
 157         V                 0.394684          1.652212
 158         V                 0.397731          1.442899
 159         V                 0.406746          1.249637
 160         V                 0.416938          1.389709
 161         V                 0.420453          1.271980
 162         V                 0.431980          1.607279
 163         V                 0.456343          1.800904
 164         V                 0.460604          1.510817
 165         V                 0.467811          1.753004
 166         V                 0.477553          2.233637
 167         V                 0.500655          1.655347
 168         V                 0.504429          1.572966
 169         V                 0.518839          2.419033
 170         V                 0.571854          2.558195
 171         V                 0.589990          3.023614
 172         V                 0.616275          2.809672
 173         V                 0.644653          2.171613
 174         V                 0.655749          2.590348
 175         V                 0.657290          2.134017
 176         V                 0.661576          2.328529
 177         V                 0.671411          2.477766
 178         V                 0.672613          2.208057
 179         V                 0.675978          2.200463
 180         V                 0.682851          2.495172
 181         V                 0.700267          2.465991
 182         V                 0.709623          2.221054
 183         V                 0.714185          2.261964
 184         V                 0.715876          2.270715
 185         V                 0.720216          2.328472
 186         V                 0.729269          2.625012
 187         V                 0.736140          2.327452
 188         V                 0.740001          2.404453
 189         V                 0.753362          2.296778
 190         V                 0.758007          2.249810
 191         V                 0.771922          2.357756
 192         V                 0.778226          2.289608
 193         V                 0.788476          2.278363
 194         V                 0.795142          2.456000
 195         V                 0.805357          2.331234
 196         V                 0.825436          2.312694
 197         V                 0.833590          2.592990
 198         V                 0.838873          2.280632
 199         V                 0.866655          2.478619
 200         V                 0.872460          2.508919
 201         V                 0.881268          2.649372
 202         V                 0.905603          2.407636
 203         V                 0.914492          2.422432
 204         V                 0.915328          2.349456
 205         V                 0.926611          2.336115
 206         V                 0.931286          2.460520
 207         V                 0.971601          2.361746
 208         V                 0.981923          2.557507
 209         V                 1.001538          2.495896
 210         V                 1.012649          2.516143
 211         V                 1.017135          2.330786
 212         V                 1.031515          2.546486
 213         V                 1.048320          2.466917
 214         V                 1.066017          2.358616
 215         V                 1.072778          2.417286
 216         V                 1.100889          2.262637
 217         V                 1.113977          2.374082
 218         V                 1.127443          2.419345
 219         V                 1.128892          2.395087
 220         V                 1.145389          2.436687
 221         V                 1.154696          2.286552
 222         V                 1.156486          2.520919
 223         V                 1.172830          2.427944
 224         V                 1.176914          2.461742
 225         V                 1.191879          2.485248
 226         V                 1.199274          2.450968
 227         V                 1.214322          2.573685
 228         V                 1.217312          2.503361
 229         V                 1.226950          2.503089
 230         V                 1.230268          3.376332
 231         V                 1.237987          2.935235
 232         V                 1.244782          3.374533
 233         V                 1.264386          2.802814
 234         V                 1.275062          2.919872
 235         V                 1.282774          3.034698
 236         V                 1.290603          2.857473
 237         V                 1.295901          3.003222
 238         V                 1.306412          3.170116
 239         V                 1.314806          3.049874
 240         V                 1.319665          3.028411
 241         V                 1.329134          2.796883
 242         V                 1.335473          2.927455
 243         V                 1.346390          2.792041
 244         V                 1.359992          2.805405
 245         V                 1.367633          3.119745
 246         V                 1.383998          2.722485
 247         V                 1.387205          2.658305
 248         V                 1.402160          2.778782
 249         V                 1.417164          2.640806
 250         V                 1.428348          2.879534
 251         V                 1.434942          2.805816
 252         V                 1.438436          2.807677
 253         V                 1.442777          2.845404
 254         V                 1.444326          2.780754
 255         V                 1.451009          2.687357
 256         V                 1.464941          2.688359
 257         V                 1.482937          2.836087
 258         V                 1.493704          3.091629
 259         V                 1.509351          3.069356
 260         V                 1.523441          3.057063
 261         V                 1.573272          2.881236
 262         V                 1.611615          3.028575
 263         V                 1.626952          3.058398
 264         V                 1.631834          3.010735
 265         V                 1.658769          3.143289
 266         V                 1.688262          2.919644
 267         V                 1.719339          2.895635
 268         V                 1.731427          2.962443
 269         V                 1.736939          3.013100
 270         V                 1.766740          3.132322
 271         V                 1.771492          3.060238
 272         V                 1.781453          3.241423
 273         V                 1.788859          3.157792
 274         V                 1.803705          3.124360
 275         V                 1.812403          3.228196
 276         V                 1.825333          3.284009
 277         V                 1.830567          3.258605
 278         V                 1.843661          3.209652
 279         V                 1.851291          3.178206
 280         V                 1.864296          3.231827
 281         V                 1.867691          3.161851
 282         V                 1.883063          3.261545
 283         V                 1.910534          3.285804
 284         V                 1.922848          3.214242
 285         V                 1.925076          3.369785
 286         V                 1.939915          3.452870
 287         V                 1.973089          3.388177
 288         V                 1.986558          3.356801
 289         V                 1.992764          3.287260
 290         V                 2.017325          3.592675
 291         V                 2.023582          3.540689
 292         V                 2.037716          3.669364
 293         V                 2.048279          3.578208
 294         V                 2.058450          3.625729
 295         V                 2.063942          3.579884
 296         V                 2.086787          3.422882
 297         V                 2.116452          3.519952
 298         V                 2.125670          3.577097
 299         V                 2.134648          3.452460
 300         V                 2.152058          3.514403
 301         V                 2.153525          3.608870
 302         V                 2.178814          3.606043
 303         V                 2.191300          3.494249
 304         V                 2.201926          3.612861
 305         V                 2.215287          3.607881
 306         V                 2.238876          3.543110
 307         V                 2.245421          3.604011
 308         V                 2.252876          3.559756
 309         V                 2.265469          3.556397
 310         V                 2.271597          3.572236
 311         V                 2.274721          3.660364
 312         V                 2.294335          3.633608
 313         V                 2.362910          3.811852
 314         V                 2.386610          3.868221
 315         V                 2.422549          3.852328
 316         V                 2.459510          4.133240
 317         V                 2.489297          3.899445
 318         V                 2.491346          4.163505
 319         V                 2.512625          4.079362
 320         V                 2.530720          3.871004
 321         V                 2.547600          4.100133
 322         V                 2.574391          4.035167
 323         V                 2.580497          4.061837
 324         V                 2.602410          4.128346
 325         V                 2.609555          3.943932
 326         V                 2.652745          4.220326
 327         V                 2.668081          4.196044
 328         V                 2.690938          4.219467
 329         V                 2.698299          4.310775
 330         V                 2.707539          4.181472
 331         V                 2.724849          4.364243
 332         V                 2.735072          4.477744
 333         V                 2.742668          4.468221
 334         V                 2.760728          4.357020
 335         V                 2.800528          4.458022
 336         V                 2.828013          4.679614
 337         V                 2.846521          4.574118
 338         V                 2.855200          4.665346
 339         V                 2.922969          4.789050
 340         V                 2.959105          4.723848
 341         V                 2.992992          5.083839
 342         V                 3.018431          4.938871
 343         V                 3.036637          4.839667
 344         V                 3.057216          4.885196
 345         V                 3.125361          4.951590
 346         V                 3.168205          5.043221
 347         V                 3.208779          5.259029
 348         V                 3.240304          5.336023
 349         V                 3.328061          5.390964
 350         V                 3.403353          5.374780
 351         V                 3.467984          5.309730
 352         V                 4.110449         10.453830
 353         V                 4.207365         10.516012
 354         V                 4.223253         10.529752
 355         V                 4.231462         10.522022
 356         V                 4.281575         10.582658
 357         V                 4.293695         10.546102
 358         V                 4.297241         10.544036
 359         V                 4.311655         10.617241
 360         V                 4.342436         10.750107
 361         V                 4.395089         10.405980
 362         V                 4.405907         10.482813
 363         V                 4.425123         11.197084
 364         V                 4.443581         10.482476
 365         V                 4.503276         11.177484
 366         V                 4.620827         12.125705
 367         V                 4.670867         10.752049
 368         V                 4.712655         11.595736
 369         V                 4.796967         11.395158
 370         V                 5.043327         12.511304
 Total kinetic energy from orbitals= 8.851504420634D+02
 Leave Link  601 at Fri Jun  4 10:58:58 2021, MaxMem=    33554432 cpu:         1.5
 (Enter /opt/app/gaussian09/e01/g09/l9999.exe)
 1\1\GINC-NB-0173\SP\RB3LYP TD-FC\6-31+G(d)\C14H7N1O4\ROOT\04-Jun-2021\
 0\\#p td(NStates=10) b3lyp/6-31+g(d) nosymm pop=full\\1_nitro_anthraqu
 inone td\\0,1\C,0,-4.31491567,-0.41010286,0.08830697\C,0,-3.4631467,0.
 69106761,0.0789264\C,0,-2.0776909,0.50475918,0.00663957\C,0,-1.5492258
 3,-0.79838577,-0.0636116\C,0,-2.4128865,-1.89979401,-0.06461786\C,0,-3
 .78936084,-1.70582952,0.01655067\C,0,-1.18567695,1.69382424,-0.0090099
 6\C,0,-0.0828748,-1.03708084,-0.16648851\C,0,0.82034911,0.14810719,-0.
 02647499\C,0,0.2934465,1.45551108,-0.02396207\C,0,1.14161044,2.5680250
 6,-0.01182019\H,0,0.69113351,3.55460119,-0.0082751\C,0,2.52195942,2.39
 698006,-0.01154426\C,0,3.06501124,1.11093787,-0.00058419\C,0,2.2146334
 3,0.01141772,0.01300315\H,0,-5.38947755,-0.2626264,0.14864934\H,0,-3.8
 4632717,1.70500237,0.12591645\H,0,-1.98349262,-2.89399634,-0.12913549\
 H,0,-4.45634511,-2.56323375,0.02241902\H,0,3.18176661,3.25917649,-0.01
 45514\H,0,4.13849311,0.95417531,0.00769357\O,0,0.36861542,-2.15111087,
 -0.39095689\O,0,-1.63284528,2.83426176,0.00738695\N,0,2.87586538,-1.30
 807998,0.13005855\O,0,3.59211098,-1.6480886,-0.80578391\O,0,2.72784384
 ,-1.90670742,1.18747823\\Version=ES64L-G09RevE.01\HF=-893.2946467\RMSD
 =8.427e-09\PG=C01 [X(C14H7N1O4)]\\@


 THAT'S WHAT MAKES US A GREAT COUNTRY.
 THE LITTLE THINGS ARE SERIOUS AND THE BIG ONES ARE NOT.
           WILL ROGERS
 Job cpu time:       0 days  1 hours 11 minutes 24.7 seconds.
 File lengths (MBytes):  RWF=    363 Int=      0 D2E=      0 Chk=     54 Scr=      1
 Normal termination of Gaussian 09 at Fri Jun  4 10:59:07 2021.
