1_nitro_anthraquinone opt                                               
FOpt      RB3LYP                                                      6-31G(d)            
Number of atoms                            I               26
Info1-9                                    I   N=           9
          60          60           0           0           0         110
           2          18        -502
Charge                                     I                0
Multiplicity                               I                1
Number of electrons                        I              130
Number of alpha electrons                  I               65
Number of beta electrons                   I               65
Number of basis functions                  I              299
Number of independent functions            I              299
Number of point charges in /Mol/           I                0
Number of translation vectors              I                0
Atomic numbers                             I   N=          26
           6           6           6           6           6           6
           6           6           6           6           6           1
           6           6           6           1           1           1
           1           1           1           8           8           7
           8           8
Nuclear charges                            R   N=          26
  6.00000000E+00  6.00000000E+00  6.00000000E+00  6.00000000E+00  6.00000000E+00
  6.00000000E+00  6.00000000E+00  6.00000000E+00  6.00000000E+00  6.00000000E+00
  6.00000000E+00  1.00000000E+00  6.00000000E+00  6.00000000E+00  6.00000000E+00
  1.00000000E+00  1.00000000E+00  1.00000000E+00  1.00000000E+00  1.00000000E+00
  1.00000000E+00  8.00000000E+00  8.00000000E+00  7.00000000E+00  8.00000000E+00
  8.00000000E+00
Current cartesian coordinates              R   N=          78
 -8.15400828E+00 -7.74982037E-01  1.66875975E-01 -6.54439832E+00  1.30592843E+00
  1.49149271E-01 -3.92626649E+00  9.53856546E-01  1.25469758E-02 -2.92761231E+00
 -1.50873033E+00 -1.20208496E-01 -4.55969432E+00 -3.59009011E+00 -1.22110049E-01
 -7.16085366E+00 -3.22355037E+00  3.12762259E-02 -2.24060455E+00  3.20086369E+00
 -1.70263522E-02 -1.56610669E-01 -1.95979862E+00 -3.14617673E-01  1.55023503E+00
  2.79882011E-01 -5.00304682E-02  5.54533483E-01  2.75051711E+00 -4.52817381E-02
  2.15733092E+00  4.85286369E+00 -2.23369133E-02  1.30605296E+00  6.71722224E+00
 -1.56376750E-02  4.76581225E+00  4.52963551E+00 -2.18154948E-02  5.79203140E+00
  2.09936817E+00 -1.10396599E-03  4.18505035E+00  2.15763700E-02  2.45723904E-02
 -1.01846358E+01 -4.96291942E-01  2.80906517E-01 -7.26850441E+00  3.22198728E+00
  2.37947585E-01 -3.74825756E+00 -5.46886009E+00 -2.44030694E-01 -8.42127117E+00
 -4.84380944E+00  4.23658023E-02  6.01266705E+00  6.15895051E+00 -2.74981523E-02
  7.82061799E+00  1.80312988E+00  1.45387389E-02  6.96582147E-01 -4.06501012E+00
 -7.38801399E-01 -3.08563016E+00  5.35597811E+00  1.39593050E-02  5.43459754E+00
 -2.47191274E+00  2.45775031E-01  6.78810548E+00 -3.11443586E+00 -1.52271080E+00
  5.15487740E+00 -3.60315457E+00  2.24400847E+00
Force Field                                I                0
Int Atom Types                             I   N=          26
           0           0           0           0           0           0
           0           0           0           0           0           0
           0           0           0           0           0           0
           0           0           0           0           0           0
           0           0
MM charges                                 R   N=          26
  0.00000000E+00  0.00000000E+00  0.00000000E+00  0.00000000E+00  0.00000000E+00
  0.00000000E+00  0.00000000E+00  0.00000000E+00  0.00000000E+00  0.00000000E+00
  0.00000000E+00  0.00000000E+00  0.00000000E+00  0.00000000E+00  0.00000000E+00
  0.00000000E+00  0.00000000E+00  0.00000000E+00  0.00000000E+00  0.00000000E+00
  0.00000000E+00  0.00000000E+00  0.00000000E+00  0.00000000E+00  0.00000000E+00
  0.00000000E+00
Integer atomic weights                     I   N=          26
          12          12          12          12          12          12
          12          12          12          12          12           1
          12          12          12           1           1           1
           1           1           1          16          16          14
          16          16
Real atomic weights                        R   N=          26
  1.20000000E+01  1.20000000E+01  1.20000000E+01  1.20000000E+01  1.20000000E+01
  1.20000000E+01  1.20000000E+01  1.20000000E+01  1.20000000E+01  1.20000000E+01
  1.20000000E+01  1.00782504E+00  1.20000000E+01  1.20000000E+01  1.20000000E+01
  1.00782504E+00  1.00782504E+00  1.00782504E+00  1.00782504E+00  1.00782504E+00
  1.00782504E+00  1.59949146E+01  1.59949146E+01  1.40030740E+01  1.59949146E+01
  1.59949146E+01
Atom fragment info                         I   N=          26
           0           0           0           0           0           0
           0           0           0           0           0           0
           0           0           0           0           0           0
           0           0           0           0           0           0
           0           0
Atom residue num                           I   N=          26
           0           0           0           0           0           0
           0           0           0           0           0           0
           0           0           0           0           0           0
           0           0           0           0           0           0
           0           0
Nuclear spins                              I   N=          26
           0           0           0           0           0           0
           0           0           0           0           0           1
           0           0           0           1           1           1
           1           1           1           0           0           2
           0           0
Nuclear ZEff                               R   N=          26
 -3.60000000E+00 -3.60000000E+00 -3.60000000E+00 -3.60000000E+00 -3.60000000E+00
 -3.60000000E+00 -3.60000000E+00 -3.60000000E+00 -3.60000000E+00 -3.60000000E+00
 -3.60000000E+00 -1.00000000E+00 -3.60000000E+00 -3.60000000E+00 -3.60000000E+00
 -1.00000000E+00 -1.00000000E+00 -1.00000000E+00 -1.00000000E+00 -1.00000000E+00
 -1.00000000E+00 -5.60000000E+00 -5.60000000E+00 -4.55000000E+00 -5.60000000E+00
 -5.60000000E+00
Nuclear ZNuc                               R   N=          26
  6.00000000E+00  6.00000000E+00  6.00000000E+00  6.00000000E+00  6.00000000E+00
  6.00000000E+00  6.00000000E+00  6.00000000E+00  6.00000000E+00  6.00000000E+00
  6.00000000E+00  1.00000000E+00  6.00000000E+00  6.00000000E+00  6.00000000E+00
  1.00000000E+00  1.00000000E+00  1.00000000E+00  1.00000000E+00  1.00000000E+00
  1.00000000E+00  8.00000000E+00  8.00000000E+00  7.00000000E+00  8.00000000E+00
  8.00000000E+00
Nuclear QMom                               R   N=          26
  0.00000000E+00  0.00000000E+00  0.00000000E+00  0.00000000E+00  0.00000000E+00
  0.00000000E+00  0.00000000E+00  0.00000000E+00  0.00000000E+00  0.00000000E+00
  0.00000000E+00  0.00000000E+00  0.00000000E+00  0.00000000E+00  0.00000000E+00
  0.00000000E+00  0.00000000E+00  0.00000000E+00  0.00000000E+00  0.00000000E+00
  0.00000000E+00  0.00000000E+00  0.00000000E+00  2.04400000E+00  0.00000000E+00
  0.00000000E+00
Nuclear GFac                               R   N=          26
  0.00000000E+00  0.00000000E+00  0.00000000E+00  0.00000000E+00  0.00000000E+00
  0.00000000E+00  0.00000000E+00  0.00000000E+00  0.00000000E+00  0.00000000E+00
  0.00000000E+00  2.79284600E+00  0.00000000E+00  0.00000000E+00  0.00000000E+00
  2.79284600E+00  2.79284600E+00  2.79284600E+00  2.79284600E+00  2.79284600E+00
  2.79284600E+00  0.00000000E+00  0.00000000E+00  4.03761000E-01  0.00000000E+00
  0.00000000E+00
MicOpt                                     I   N=          26
          -1          -1          -1          -1          -1          -1
          -1          -1          -1          -1          -1          -1
          -1          -1          -1          -1          -1          -1
          -1          -1          -1          -1          -1          -1
          -1          -1
SymInf integers                            I   N=          26
           1           1           1           1           1           0
           0           0           0           0           0           0
           0           0           0           0           0           0
           0           0           0           0           0           0
           0           0
RotTr to input orientation                 R   N=          12
  6.03046714E-01  7.97231621E-01 -2.75027728E-02  7.97635245E-01 -6.02176046E-01
  3.40884994E-02  1.06149187E-02 -4.24941384E-02 -9.99040325E-01 -8.15775153E-01
 -7.93005043E-02 -1.70133831E-01
Number of contracted shells                I               90
Number of primitive shells                 I              237
Pure/Cartesian d shells                    I                1
Pure/Cartesian f shells                    I                0
Highest angular momentum                   I                2
Largest degree of contraction              I                6
Shell types                                I   N=          90
           0          -1          -1           2           0          -1
          -1           2           0          -1          -1           2
           0          -1          -1           2           0          -1
          -1           2           0          -1          -1           2
           0          -1          -1           2           0          -1
          -1           2           0          -1          -1           2
           0          -1          -1           2           0          -1
          -1           2           0           0           0          -1
          -1           2           0          -1          -1           2
           0          -1          -1           2           0           0
           0           0           0           0           0           0
           0           0           0           0           0          -1
          -1           2           0          -1          -1           2
           0          -1          -1           2           0          -1
          -1           2           0          -1          -1           2
Number of primitives per shell             I   N=          90
           6           3           1           1           6           3
           1           1           6           3           1           1
           6           3           1           1           6           3
           1           1           6           3           1           1
           6           3           1           1           6           3
           1           1           6           3           1           1
           6           3           1           1           6           3
           1           1           3           1           6           3
           1           1           6           3           1           1
           6           3           1           1           3           1
           3           1           3           1           3           1
           3           1           3           1           6           3
           1           1           6           3           1           1
           6           3           1           1           6           3
           1           1           6           3           1           1
Shell to atom map                          I   N=          90
           1           1           1           1           2           2
           2           2           3           3           3           3
           4           4           4           4           5           5
           5           5           6           6           6           6
           7           7           7           7           8           8
           8           8           9           9           9           9
          10          10          10          10          11          11
          11          11          12          12          13          13
          13          13          14          14          14          14
          15          15          15          15          16          16
          17          17          18          18          19          19
          20          20          21          21          22          22
          22          22          23          23          23          23
          24          24          24          24          25          25
          25          25          26          26          26          26
Primitive exponents                        R   N=         237
  3.04752488E+03  4.57369518E+02  1.03948685E+02  2.92101553E+01  9.28666296E+00
  3.16392696E+00  7.86827235E+00  1.88128854E+00  5.44249258E-01  1.68714478E-01
  8.00000000E-01  3.04752488E+03  4.57369518E+02  1.03948685E+02  2.92101553E+01
  9.28666296E+00  3.16392696E+00  7.86827235E+00  1.88128854E+00  5.44249258E-01
  1.68714478E-01  8.00000000E-01  3.04752488E+03  4.57369518E+02  1.03948685E+02
  2.92101553E+01  9.28666296E+00  3.16392696E+00  7.86827235E+00  1.88128854E+00
  5.44249258E-01  1.68714478E-01  8.00000000E-01  3.04752488E+03  4.57369518E+02
  1.03948685E+02  2.92101553E+01  9.28666296E+00  3.16392696E+00  7.86827235E+00
  1.88128854E+00  5.44249258E-01  1.68714478E-01  8.00000000E-01  3.04752488E+03
  4.57369518E+02  1.03948685E+02  2.92101553E+01  9.28666296E+00  3.16392696E+00
  7.86827235E+00  1.88128854E+00  5.44249258E-01  1.68714478E-01  8.00000000E-01
  3.04752488E+03  4.57369518E+02  1.03948685E+02  2.92101553E+01  9.28666296E+00
  3.16392696E+00  7.86827235E+00  1.88128854E+00  5.44249258E-01  1.68714478E-01
  8.00000000E-01  3.04752488E+03  4.57369518E+02  1.03948685E+02  2.92101553E+01
  9.28666296E+00  3.16392696E+00  7.86827235E+00  1.88128854E+00  5.44249258E-01
  1.68714478E-01  8.00000000E-01  3.04752488E+03  4.57369518E+02  1.03948685E+02
  2.92101553E+01  9.28666296E+00  3.16392696E+00  7.86827235E+00  1.88128854E+00
  5.44249258E-01  1.68714478E-01  8.00000000E-01  3.04752488E+03  4.57369518E+02
  1.03948685E+02  2.92101553E+01  9.28666296E+00  3.16392696E+00  7.86827235E+00
  1.88128854E+00  5.44249258E-01  1.68714478E-01  8.00000000E-01  3.04752488E+03
  4.57369518E+02  1.03948685E+02  2.92101553E+01  9.28666296E+00  3.16392696E+00
  7.86827235E+00  1.88128854E+00  5.44249258E-01  1.68714478E-01  8.00000000E-01
  3.04752488E+03  4.57369518E+02  1.03948685E+02  2.92101553E+01  9.28666296E+00
  3.16392696E+00  7.86827235E+00  1.88128854E+00  5.44249258E-01  1.68714478E-01
  8.00000000E-01  1.87311370E+01  2.82539436E+00  6.40121692E-01  1.61277759E-01
  3.04752488E+03  4.57369518E+02  1.03948685E+02  2.92101553E+01  9.28666296E+00
  3.16392696E+00  7.86827235E+00  1.88128854E+00  5.44249258E-01  1.68714478E-01
  8.00000000E-01  3.04752488E+03  4.57369518E+02  1.03948685E+02  2.92101553E+01
  9.28666296E+00  3.16392696E+00  7.86827235E+00  1.88128854E+00  5.44249258E-01
  1.68714478E-01  8.00000000E-01  3.04752488E+03  4.57369518E+02  1.03948685E+02
  2.92101553E+01  9.28666296E+00  3.16392696E+00  7.86827235E+00  1.88128854E+00
  5.44249258E-01  1.68714478E-01  8.00000000E-01  1.87311370E+01  2.82539436E+00
  6.40121692E-01  1.61277759E-01  1.87311370E+01  2.82539436E+00  6.40121692E-01
  1.61277759E-01  1.87311370E+01  2.82539436E+00  6.40121692E-01  1.61277759E-01
  1.87311370E+01  2.82539436E+00  6.40121692E-01  1.61277759E-01  1.87311370E+01
  2.82539436E+00  6.40121692E-01  1.61277759E-01  1.87311370E+01  2.82539436E+00
  6.40121692E-01  1.61277759E-01  5.48467166E+03  8.25234946E+02  1.88046958E+02
  5.29645000E+01  1.68975704E+01  5.79963534E+00  1.55396162E+01  3.59993359E+00
  1.01376175E+00  2.70005823E-01  8.00000000E-01  5.48467166E+03  8.25234946E+02
  1.88046958E+02  5.29645000E+01  1.68975704E+01  5.79963534E+00  1.55396162E+01
  3.59993359E+00  1.01376175E+00  2.70005823E-01  8.00000000E-01  4.17351146E+03
  6.27457911E+02  1.42902093E+02  4.02343293E+01  1.28202129E+01  4.39043701E+00
  1.16263619E+01  2.71627981E+00  7.72218397E-01  2.12031498E-01  8.00000000E-01
  5.48467166E+03  8.25234946E+02  1.88046958E+02  5.29645000E+01  1.68975704E+01
  5.79963534E+00  1.55396162E+01  3.59993359E+00  1.01376175E+00  2.70005823E-01
  8.00000000E-01  5.48467166E+03  8.25234946E+02  1.88046958E+02  5.29645000E+01
  1.68975704E+01  5.79963534E+00  1.55396162E+01  3.59993359E+00  1.01376175E+00
  2.70005823E-01  8.00000000E-01
Contraction coefficients                   R   N=         237
  1.83473713E-03  1.40373228E-02  6.88426223E-02  2.32184443E-01  4.67941348E-01
  3.62311985E-01 -1.19332420E-01 -1.60854152E-01  1.14345644E+00  1.00000000E+00
  1.00000000E+00  1.83473713E-03  1.40373228E-02  6.88426223E-02  2.32184443E-01
  4.67941348E-01  3.62311985E-01 -1.19332420E-01 -1.60854152E-01  1.14345644E+00
  1.00000000E+00  1.00000000E+00  1.83473713E-03  1.40373228E-02  6.88426223E-02
  2.32184443E-01  4.67941348E-01  3.62311985E-01 -1.19332420E-01 -1.60854152E-01
  1.14345644E+00  1.00000000E+00  1.00000000E+00  1.83473713E-03  1.40373228E-02
  6.88426223E-02  2.32184443E-01  4.67941348E-01  3.62311985E-01 -1.19332420E-01
 -1.60854152E-01  1.14345644E+00  1.00000000E+00  1.00000000E+00  1.83473713E-03
  1.40373228E-02  6.88426223E-02  2.32184443E-01  4.67941348E-01  3.62311985E-01
 -1.19332420E-01 -1.60854152E-01  1.14345644E+00  1.00000000E+00  1.00000000E+00
  1.83473713E-03  1.40373228E-02  6.88426223E-02  2.32184443E-01  4.67941348E-01
  3.62311985E-01 -1.19332420E-01 -1.60854152E-01  1.14345644E+00  1.00000000E+00
  1.00000000E+00  1.83473713E-03  1.40373228E-02  6.88426223E-02  2.32184443E-01
  4.67941348E-01  3.62311985E-01 -1.19332420E-01 -1.60854152E-01  1.14345644E+00
  1.00000000E+00  1.00000000E+00  1.83473713E-03  1.40373228E-02  6.88426223E-02
  2.32184443E-01  4.67941348E-01  3.62311985E-01 -1.19332420E-01 -1.60854152E-01
  1.14345644E+00  1.00000000E+00  1.00000000E+00  1.83473713E-03  1.40373228E-02
  6.88426223E-02  2.32184443E-01  4.67941348E-01  3.62311985E-01 -1.19332420E-01
 -1.60854152E-01  1.14345644E+00  1.00000000E+00  1.00000000E+00  1.83473713E-03
  1.40373228E-02  6.88426223E-02  2.32184443E-01  4.67941348E-01  3.62311985E-01
 -1.19332420E-01 -1.60854152E-01  1.14345644E+00  1.00000000E+00  1.00000000E+00
  1.83473713E-03  1.40373228E-02  6.88426223E-02  2.32184443E-01  4.67941348E-01
  3.62311985E-01 -1.19332420E-01 -1.60854152E-01  1.14345644E+00  1.00000000E+00
  1.00000000E+00  3.34946043E-02  2.34726953E-01  8.13757326E-01  1.00000000E+00
  1.83473713E-03  1.40373228E-02  6.88426223E-02  2.32184443E-01  4.67941348E-01
  3.62311985E-01 -1.19332420E-01 -1.60854152E-01  1.14345644E+00  1.00000000E+00
  1.00000000E+00  1.83473713E-03  1.40373228E-02  6.88426223E-02  2.32184443E-01
  4.67941348E-01  3.62311985E-01 -1.19332420E-01 -1.60854152E-01  1.14345644E+00
  1.00000000E+00  1.00000000E+00  1.83473713E-03  1.40373228E-02  6.88426223E-02
  2.32184443E-01  4.67941348E-01  3.62311985E-01 -1.19332420E-01 -1.60854152E-01
  1.14345644E+00  1.00000000E+00  1.00000000E+00  3.34946043E-02  2.34726953E-01
  8.13757326E-01  1.00000000E+00  3.34946043E-02  2.34726953E-01  8.13757326E-01
  1.00000000E+00  3.34946043E-02  2.34726953E-01  8.13757326E-01  1.00000000E+00
  3.34946043E-02  2.34726953E-01  8.13757326E-01  1.00000000E+00  3.34946043E-02
  2.34726953E-01  8.13757326E-01  1.00000000E+00  3.34946043E-02  2.34726953E-01
  8.13757326E-01  1.00000000E+00  1.83107443E-03  1.39501722E-02  6.84450781E-02
  2.32714336E-01  4.70192898E-01  3.58520853E-01 -1.10777550E-01 -1.48026263E-01
  1.13076702E+00  1.00000000E+00  1.00000000E+00  1.83107443E-03  1.39501722E-02
  6.84450781E-02  2.32714336E-01  4.70192898E-01  3.58520853E-01 -1.10777550E-01
 -1.48026263E-01  1.13076702E+00  1.00000000E+00  1.00000000E+00  1.83477216E-03
  1.39946270E-02  6.85865518E-02  2.32240873E-01  4.69069948E-01  3.60455199E-01
 -1.14961182E-01 -1.69117479E-01  1.14585195E+00  1.00000000E+00  1.00000000E+00
  1.83107443E-03  1.39501722E-02  6.84450781E-02  2.32714336E-01  4.70192898E-01
  3.58520853E-01 -1.10777550E-01 -1.48026263E-01  1.13076702E+00  1.00000000E+00
  1.00000000E+00  1.83107443E-03  1.39501722E-02  6.84450781E-02  2.32714336E-01
  4.70192898E-01  3.58520853E-01 -1.10777550E-01 -1.48026263E-01  1.13076702E+00
  1.00000000E+00  1.00000000E+00
P(S=P) Contraction coefficients            R   N=         237
  0.00000000E+00  0.00000000E+00  0.00000000E+00  0.00000000E+00  0.00000000E+00
  0.00000000E+00  6.89990666E-02  3.16423961E-01  7.44308291E-01  1.00000000E+00
  0.00000000E+00  0.00000000E+00  0.00000000E+00  0.00000000E+00  0.00000000E+00
  0.00000000E+00  0.00000000E+00  6.89990666E-02  3.16423961E-01  7.44308291E-01
  1.00000000E+00  0.00000000E+00  0.00000000E+00  0.00000000E+00  0.00000000E+00
  0.00000000E+00  0.00000000E+00  0.00000000E+00  6.89990666E-02  3.16423961E-01
  7.44308291E-01  1.00000000E+00  0.00000000E+00  0.00000000E+00  0.00000000E+00
  0.00000000E+00  0.00000000E+00  0.00000000E+00  0.00000000E+00  6.89990666E-02
  3.16423961E-01  7.44308291E-01  1.00000000E+00  0.00000000E+00  0.00000000E+00
  0.00000000E+00  0.00000000E+00  0.00000000E+00  0.00000000E+00  0.00000000E+00
  6.89990666E-02  3.16423961E-01  7.44308291E-01  1.00000000E+00  0.00000000E+00
  0.00000000E+00  0.00000000E+00  0.00000000E+00  0.00000000E+00  0.00000000E+00
  0.00000000E+00  6.89990666E-02  3.16423961E-01  7.44308291E-01  1.00000000E+00
  0.00000000E+00  0.00000000E+00  0.00000000E+00  0.00000000E+00  0.00000000E+00
  0.00000000E+00  0.00000000E+00  6.89990666E-02  3.16423961E-01  7.44308291E-01
  1.00000000E+00  0.00000000E+00  0.00000000E+00  0.00000000E+00  0.00000000E+00
  0.00000000E+00  0.00000000E+00  0.00000000E+00  6.89990666E-02  3.16423961E-01
  7.44308291E-01  1.00000000E+00  0.00000000E+00  0.00000000E+00  0.00000000E+00
  0.00000000E+00  0.00000000E+00  0.00000000E+00  0.00000000E+00  6.89990666E-02
  3.16423961E-01  7.44308291E-01  1.00000000E+00  0.00000000E+00  0.00000000E+00
  0.00000000E+00  0.00000000E+00  0.00000000E+00  0.00000000E+00  0.00000000E+00
  6.89990666E-02  3.16423961E-01  7.44308291E-01  1.00000000E+00  0.00000000E+00
  0.00000000E+00  0.00000000E+00  0.00000000E+00  0.00000000E+00  0.00000000E+00
  0.00000000E+00  6.89990666E-02  3.16423961E-01  7.44308291E-01  1.00000000E+00
  0.00000000E+00  0.00000000E+00  0.00000000E+00  0.00000000E+00  0.00000000E+00
  0.00000000E+00  0.00000000E+00  0.00000000E+00  0.00000000E+00  0.00000000E+00
  0.00000000E+00  6.89990666E-02  3.16423961E-01  7.44308291E-01  1.00000000E+00
  0.00000000E+00  0.00000000E+00  0.00000000E+00  0.00000000E+00  0.00000000E+00
  0.00000000E+00  0.00000000E+00  6.89990666E-02  3.16423961E-01  7.44308291E-01
  1.00000000E+00  0.00000000E+00  0.00000000E+00  0.00000000E+00  0.00000000E+00
  0.00000000E+00  0.00000000E+00  0.00000000E+00  6.89990666E-02  3.16423961E-01
  7.44308291E-01  1.00000000E+00  0.00000000E+00  0.00000000E+00  0.00000000E+00
  0.00000000E+00  0.00000000E+00  0.00000000E+00  0.00000000E+00  0.00000000E+00
  0.00000000E+00  0.00000000E+00  0.00000000E+00  0.00000000E+00  0.00000000E+00
  0.00000000E+00  0.00000000E+00  0.00000000E+00  0.00000000E+00  0.00000000E+00
  0.00000000E+00  0.00000000E+00  0.00000000E+00  0.00000000E+00  0.00000000E+00
  0.00000000E+00  0.00000000E+00  0.00000000E+00  0.00000000E+00  0.00000000E+00
  0.00000000E+00  0.00000000E+00  0.00000000E+00  7.08742682E-02  3.39752839E-01
  7.27158577E-01  1.00000000E+00  0.00000000E+00  0.00000000E+00  0.00000000E+00
  0.00000000E+00  0.00000000E+00  0.00000000E+00  0.00000000E+00  7.08742682E-02
  3.39752839E-01  7.27158577E-01  1.00000000E+00  0.00000000E+00  0.00000000E+00
  0.00000000E+00  0.00000000E+00  0.00000000E+00  0.00000000E+00  0.00000000E+00
  6.75797439E-02  3.23907296E-01  7.40895140E-01  1.00000000E+00  0.00000000E+00
  0.00000000E+00  0.00000000E+00  0.00000000E+00  0.00000000E+00  0.00000000E+00
  0.00000000E+00  7.08742682E-02  3.39752839E-01  7.27158577E-01  1.00000000E+00
  0.00000000E+00  0.00000000E+00  0.00000000E+00  0.00000000E+00  0.00000000E+00
  0.00000000E+00  0.00000000E+00  7.08742682E-02  3.39752839E-01  7.27158577E-01
  1.00000000E+00  0.00000000E+00
Coordinates of each shell                  R   N=         270
 -8.15400828E+00 -7.74982037E-01  1.66875975E-01 -8.15400828E+00 -7.74982037E-01
  1.66875975E-01 -8.15400828E+00 -7.74982037E-01  1.66875975E-01 -8.15400828E+00
 -7.74982037E-01  1.66875975E-01 -6.54439832E+00  1.30592843E+00  1.49149271E-01
 -6.54439832E+00  1.30592843E+00  1.49149271E-01 -6.54439832E+00  1.30592843E+00
  1.49149271E-01 -6.54439832E+00  1.30592843E+00  1.49149271E-01 -3.92626649E+00
  9.53856546E-01  1.25469758E-02 -3.92626649E+00  9.53856546E-01  1.25469758E-02
 -3.92626649E+00  9.53856546E-01  1.25469758E-02 -3.92626649E+00  9.53856546E-01
  1.25469758E-02 -2.92761231E+00 -1.50873033E+00 -1.20208496E-01 -2.92761231E+00
 -1.50873033E+00 -1.20208496E-01 -2.92761231E+00 -1.50873033E+00 -1.20208496E-01
 -2.92761231E+00 -1.50873033E+00 -1.20208496E-01 -4.55969432E+00 -3.59009011E+00
 -1.22110049E-01 -4.55969432E+00 -3.59009011E+00 -1.22110049E-01 -4.55969432E+00
 -3.59009011E+00 -1.22110049E-01 -4.55969432E+00 -3.59009011E+00 -1.22110049E-01
 -7.16085366E+00 -3.22355037E+00  3.12762259E-02 -7.16085366E+00 -3.22355037E+00
  3.12762259E-02 -7.16085366E+00 -3.22355037E+00  3.12762259E-02 -7.16085366E+00
 -3.22355037E+00  3.12762259E-02 -2.24060455E+00  3.20086369E+00 -1.70263522E-02
 -2.24060455E+00  3.20086369E+00 -1.70263522E-02 -2.24060455E+00  3.20086369E+00
 -1.70263522E-02 -2.24060455E+00  3.20086369E+00 -1.70263522E-02 -1.56610669E-01
 -1.95979862E+00 -3.14617673E-01 -1.56610669E-01 -1.95979862E+00 -3.14617673E-01
 -1.56610669E-01 -1.95979862E+00 -3.14617673E-01 -1.56610669E-01 -1.95979862E+00
 -3.14617673E-01  1.55023503E+00  2.79882011E-01 -5.00304682E-02  1.55023503E+00
  2.79882011E-01 -5.00304682E-02  1.55023503E+00  2.79882011E-01 -5.00304682E-02
  1.55023503E+00  2.79882011E-01 -5.00304682E-02  5.54533483E-01  2.75051711E+00
 -4.52817381E-02  5.54533483E-01  2.75051711E+00 -4.52817381E-02  5.54533483E-01
  2.75051711E+00 -4.52817381E-02  5.54533483E-01  2.75051711E+00 -4.52817381E-02
  2.15733092E+00  4.85286369E+00 -2.23369133E-02  2.15733092E+00  4.85286369E+00
 -2.23369133E-02  2.15733092E+00  4.85286369E+00 -2.23369133E-02  2.15733092E+00
  4.85286369E+00 -2.23369133E-02  1.30605296E+00  6.71722224E+00 -1.56376750E-02
  1.30605296E+00  6.71722224E+00 -1.56376750E-02  4.76581225E+00  4.52963551E+00
 -2.18154948E-02  4.76581225E+00  4.52963551E+00 -2.18154948E-02  4.76581225E+00
  4.52963551E+00 -2.18154948E-02  4.76581225E+00  4.52963551E+00 -2.18154948E-02
  5.79203140E+00  2.09936817E+00 -1.10396599E-03  5.79203140E+00  2.09936817E+00
 -1.10396599E-03  5.79203140E+00  2.09936817E+00 -1.10396599E-03  5.79203140E+00
  2.09936817E+00 -1.10396599E-03  4.18505035E+00  2.15763700E-02  2.45723904E-02
  4.18505035E+00  2.15763700E-02  2.45723904E-02  4.18505035E+00  2.15763700E-02
  2.45723904E-02  4.18505035E+00  2.15763700E-02  2.45723904E-02 -1.01846358E+01
 -4.96291942E-01  2.80906517E-01 -1.01846358E+01 -4.96291942E-01  2.80906517E-01
 -7.26850441E+00  3.22198728E+00  2.37947585E-01 -7.26850441E+00  3.22198728E+00
  2.37947585E-01 -3.74825756E+00 -5.46886009E+00 -2.44030694E-01 -3.74825756E+00
 -5.46886009E+00 -2.44030694E-01 -8.42127117E+00 -4.84380944E+00  4.23658023E-02
 -8.42127117E+00 -4.84380944E+00  4.23658023E-02  6.01266705E+00  6.15895051E+00
 -2.74981523E-02  6.01266705E+00  6.15895051E+00 -2.74981523E-02  7.82061799E+00
  1.80312988E+00  1.45387389E-02  7.82061799E+00  1.80312988E+00  1.45387389E-02
  6.96582147E-01 -4.06501012E+00 -7.38801399E-01  6.96582147E-01 -4.06501012E+00
 -7.38801399E-01  6.96582147E-01 -4.06501012E+00 -7.38801399E-01  6.96582147E-01
 -4.06501012E+00 -7.38801399E-01 -3.08563016E+00  5.35597811E+00  1.39593050E-02
 -3.08563016E+00  5.35597811E+00  1.39593050E-02 -3.08563016E+00  5.35597811E+00
  1.39593050E-02 -3.08563016E+00  5.35597811E+00  1.39593050E-02  5.43459754E+00
 -2.47191274E+00  2.45775031E-01  5.43459754E+00 -2.47191274E+00  2.45775031E-01
  5.43459754E+00 -2.47191274E+00  2.45775031E-01  5.43459754E+00 -2.47191274E+00
  2.45775031E-01  6.78810548E+00 -3.11443586E+00 -1.52271080E+00  6.78810548E+00
 -3.11443586E+00 -1.52271080E+00  6.78810548E+00 -3.11443586E+00 -1.52271080E+00
  6.78810548E+00 -3.11443586E+00 -1.52271080E+00  5.15487740E+00 -3.60315457E+00
  2.24400847E+00  5.15487740E+00 -3.60315457E+00  2.24400847E+00  5.15487740E+00
 -3.60315457E+00  2.24400847E+00  5.15487740E+00 -3.60315457E+00  2.24400847E+00
Constraint Structure                       R   N=          78
 -8.03023091E+00 -8.23447182E-01  1.61817019E-02 -6.49505846E+00  1.24780948E+00
  7.24295277E-02 -3.80164740E+00  9.77541105E-01  9.09880194E-03 -2.74620502E+00
 -1.50504887E+00 -1.03906148E-01 -4.42037870E+00 -3.63244342E+00 -1.57334786E-01
 -6.97707732E+00 -3.30073358E+00 -1.00476600E-01 -2.19334753E+00  3.07550479E+00
  5.57781580E-02 -1.19749514E-01 -1.80228182E+00 -1.63804679E-01  1.48856114E+00
  2.95805297E-01 -1.18499463E-01  4.33084570E-01  2.77845235E+00 -9.08950712E-03
  2.10718267E+00  4.90606466E+00  3.33588170E-02  1.27059793E+00  6.80817768E+00
  1.15991953E-01  4.66376247E+00  4.57456107E+00 -3.18366089E-02  5.71700978E+00
  2.09701692E+00 -1.39569109E-01  4.18186381E+00  2.53156339E-02 -1.81899701E-01
 -1.00987557E+01 -6.22846602E-01  5.99826965E-02 -7.28419104E+00  3.16976117E+00
  1.61579273E-01 -3.58377393E+00 -5.53433483E+00 -2.43736850E-01 -8.26872134E+00