 Entering Gaussian System, Link 0=/opt/app/gaussian09/e01/g09/g09.exec
 Input=benzene.gjf
 Output=benzene.log
 Initial command:
 /opt/app/gaussian09/e01/g09/l1.exe "./Gau-30054.inp" -scrdir="./"
 Entering Link 1 = /opt/app/gaussian09/e01/g09/l1.exe PID=     30059.
  
 Copyright (c) 1988,1990,1992,1993,1995,1998,2003,2009,2015,
            Gaussian, Inc.  All Rights Reserved.
  
 This is part of the Gaussian(R) 09 program.  It is based on
 the Gaussian(R) 03 system (copyright 2003, Gaussian, Inc.),
 the Gaussian(R) 98 system (copyright 1998, Gaussian, Inc.),
 the Gaussian(R) 94 system (copyright 1995, Gaussian, Inc.),
 the Gaussian 92(TM) system (copyright 1992, Gaussian, Inc.),
 the Gaussian 90(TM) system (copyright 1990, Gaussian, Inc.),
 the Gaussian 88(TM) system (copyright 1988, Gaussian, Inc.),
 the Gaussian 86(TM) system (copyright 1986, Carnegie Mellon
 University), and the Gaussian 82(TM) system (copyright 1983,
 Carnegie Mellon University). Gaussian is a federally registered
 trademark of Gaussian, Inc.
  
 This software contains proprietary and confidential information,
 including trade secrets, belonging to Gaussian, Inc.
  
 This software is provided under written license and may be
 used, copied, transmitted, or stored only in accord with that
 written license.
  
 The following legend is applicable only to US Government
 contracts under FAR:
  
                    RESTRICTED RIGHTS LEGEND
  
 Use, reproduction and disclosure by the US Government is
 subject to restrictions as set forth in subparagraphs (a)
 and (c) of the Commercial Computer Software - Restricted
 Rights clause in FAR 52.227-19.
  
 Gaussian, Inc.
 340 Quinnipiac St., Bldg. 40, Wallingford CT 06492
  
  
 ---------------------------------------------------------------
 Warning -- This program may not be used in any manner that
 competes with the business of Gaussian, Inc. or will provide
 assistance to any competitor of Gaussian, Inc.  The licensee
 of this program is prohibited from giving any competitor of
 Gaussian, Inc. access to this program.  By using this program,
 the user acknowledges that Gaussian, Inc. is engaged in the
 business of creating and licensing software in the field of
 computational chemistry and represents and warrants to the
 licensee that it is not a competitor of Gaussian, Inc. and that
 it will not use this program in any manner prohibited above.
 ---------------------------------------------------------------
  

 Cite this work as:
 Gaussian 09, Revision E.01,
 M. J. Frisch, G. W. Trucks, H. B. Schlegel, G. E. Scuseria, 
 M. A. Robb, J. R. Cheeseman, G. Scalmani, V. Barone, B. Mennucci, 
 G. A. Petersson, H. Nakatsuji, M. Caricato, X. Li, H. P. Hratchian, 
 A. F. Izmaylov, J. Bloino, G. Zheng, J. L. Sonnenberg, M. Hada, 
 M. Ehara, K. Toyota, R. Fukuda, J. Hasegawa, M. Ishida, T. Nakajima, 
 Y. Honda, O. Kitao, H. Nakai, T. Vreven, J. A. Montgomery, Jr., 
 J. E. Peralta, F. Ogliaro, M. Bearpark, J. J. Heyd, E. Brothers, 
 K. N. Kudin, V. N. Staroverov, T. Keith, R. Kobayashi, J. Normand, 
 K. Raghavachari, A. Rendell, J. C. Burant, S. S. Iyengar, J. Tomasi, 
 M. Cossi, N. Rega, J. M. Millam, M. Klene, J. E. Knox, J. B. Cross, 
 V. Bakken, C. Adamo, J. Jaramillo, R. Gomperts, R. E. Stratmann, 
 O. Yazyev, A. J. Austin, R. Cammi, C. Pomelli, J. W. Ochterski, 
 R. L. Martin, K. Morokuma, V. G. Zakrzewski, G. A. Voth, 
 P. Salvador, J. J. Dannenberg, S. Dapprich, A. D. Daniels, 
 O. Farkas, J. B. Foresman, J. V. Ortiz, J. Cioslowski, 
 and D. J. Fox, Gaussian, Inc., Wallingford CT, 2013.
 
 ******************************************
 Gaussian 09:  ES64L-G09RevE.01 30-Nov-2015
                 3-May-2021 
 ******************************************
 %chk=benzene.chk
 --------------------------------------------------------
 #p b3lyp/6-31g* opt=tight geom=connectivit int=ultrafine
 --------------------------------------------------------
 1/7=10,14=-1,18=20,19=15,26=4,38=1,57=2/1,3;
 2/9=110,12=2,17=6,18=5,40=1/2;
 3/5=1,6=6,7=1,11=2,16=1,25=1,30=1,71=1,74=-5,75=-5/1,2,3;
 4//1;
 5/5=2,38=5/2;
 6/7=2,8=2,9=2,10=2,28=1/1;
 7//1,2,3,16;
 1/7=10,14=-1,18=20,19=15,26=4/3(2);
 2/9=110/2;
 99//99;
 2/9=110/2;
 3/5=1,6=6,7=1,11=2,16=1,25=1,30=1,71=1,74=-5,75=-5/1,2,3;
 4/5=5,16=3,69=1/1;
 5/5=2,38=5/2;
 7//1,2,3,16;
 1/7=10,14=-1,18=20,19=15,26=4/3(-5);
 2/9=110/2;
 6/7=2,8=2,9=2,10=2,19=2,28=1/1;
 99/9=1/99;
 Leave Link    1 at Mon May  3 11:17:42 2021, MaxMem=           0 cpu:         0.0
 (Enter /opt/app/gaussian09/e01/g09/l101.exe)
 --------------------
 benzene optimization
 --------------------
 Symbolic Z-matrix:
 Charge =  0 Multiplicity = 1
 C                     5.86      4.13042   2. 
 C                     5.16      5.34286   2. 
 C                     3.76      5.34285   2. 
 C                     3.06      4.13042   2. 
 C                     3.76      2.91798   2. 
 C                     5.16      2.91799   2. 
 H                     6.92      4.13042   2. 
 H                     5.69      6.26084   2. 
 H                     3.23      6.26084   2. 
 H                     2.        4.13042   2. 
 H                     3.23      2.        2. 
 H                     5.69      2.        2. 
 
 NAtoms=     12 NQM=       12 NQMF=       0 NMMI=      0 NMMIF=      0
                NMic=       0 NMicF=      0.
                    Isotopes and Nuclear Properties:
 (Nuclear quadrupole moments (NQMom) in fm**2, nuclear magnetic moments (NMagM)
  in nuclear magnetons)

  Atom         1           2           3           4           5           6           7           8           9          10
 IAtWgt=          12          12          12          12          12          12           1           1           1           1
 AtmWgt=  12.0000000  12.0000000  12.0000000  12.0000000  12.0000000  12.0000000   1.0078250   1.0078250   1.0078250   1.0078250
 NucSpn=           0           0           0           0           0           0           1           1           1           1
 AtZEff=   0.0000000   0.0000000   0.0000000   0.0000000   0.0000000   0.0000000   0.0000000   0.0000000   0.0000000   0.0000000
 NQMom=    0.0000000   0.0000000   0.0000000   0.0000000   0.0000000   0.0000000   0.0000000   0.0000000   0.0000000   0.0000000
 NMagM=    0.0000000   0.0000000   0.0000000   0.0000000   0.0000000   0.0000000   2.7928460   2.7928460   2.7928460   2.7928460
 AtZNuc=   6.0000000   6.0000000   6.0000000   6.0000000   6.0000000   6.0000000   1.0000000   1.0000000   1.0000000   1.0000000

  Atom        11          12
 IAtWgt=           1           1
 AtmWgt=   1.0078250   1.0078250
 NucSpn=           1           1
 AtZEff=   0.0000000   0.0000000
 NQMom=    0.0000000   0.0000000
 NMagM=    2.7928460   2.7928460
 AtZNuc=   1.0000000   1.0000000
 Leave Link  101 at Mon May  3 11:17:43 2021, MaxMem=    33554432 cpu:         0.1
 (Enter /opt/app/gaussian09/e01/g09/l103.exe)

 GradGradGradGradGradGradGradGradGradGradGradGradGradGradGradGradGradGrad
 Berny optimization.
 Initialization pass.
                           ----------------------------
                           !    Initial Parameters    !
                           ! (Angstroms and Degrees)  !
 --------------------------                            --------------------------
 ! Name  Definition              Value          Derivative Info.                !
 --------------------------------------------------------------------------------
 ! R1    R(1,2)                  1.4            estimate D2E/DX2                !
 ! R2    R(1,6)                  1.4            estimate D2E/DX2                !
 ! R3    R(1,7)                  1.06           estimate D2E/DX2                !
 ! R4    R(2,3)                  1.4            estimate D2E/DX2                !
 ! R5    R(2,8)                  1.06           estimate D2E/DX2                !
 ! R6    R(3,4)                  1.4            estimate D2E/DX2                !
 ! R7    R(3,9)                  1.06           estimate D2E/DX2                !
 ! R8    R(4,5)                  1.4            estimate D2E/DX2                !
 ! R9    R(4,10)                 1.06           estimate D2E/DX2                !
 ! R10   R(5,6)                  1.4            estimate D2E/DX2                !
 ! R11   R(5,11)                 1.06           estimate D2E/DX2                !
 ! R12   R(6,12)                 1.06           estimate D2E/DX2                !
 ! A1    A(2,1,6)              120.0            estimate D2E/DX2                !
 ! A2    A(2,1,7)              119.9999         estimate D2E/DX2                !
 ! A3    A(6,1,7)              120.0001         estimate D2E/DX2                !
 ! A4    A(1,2,3)              119.9995         estimate D2E/DX2                !
 ! A5    A(1,2,8)              119.9999         estimate D2E/DX2                !
 ! A6    A(3,2,8)              120.0006         estimate D2E/DX2                !
 ! A7    A(2,3,4)              120.0005         estimate D2E/DX2                !
 ! A8    A(2,3,9)              119.9995         estimate D2E/DX2                !
 ! A9    A(4,3,9)              120.0            estimate D2E/DX2                !
 ! A10   A(3,4,5)              120.0            estimate D2E/DX2                !
 ! A11   A(3,4,10)             120.0001         estimate D2E/DX2                !
 ! A12   A(5,4,10)             119.9999         estimate D2E/DX2                !
 ! A13   A(4,5,6)              119.9995         estimate D2E/DX2                !
 ! A14   A(4,5,11)             119.9999         estimate D2E/DX2                !
 ! A15   A(6,5,11)             120.0006         estimate D2E/DX2                !
 ! A16   A(1,6,5)              120.0005         estimate D2E/DX2                !
 ! A17   A(1,6,12)             120.0            estimate D2E/DX2                !
 ! A18   A(5,6,12)             119.9995         estimate D2E/DX2                !
 ! D1    D(6,1,2,3)              0.0            estimate D2E/DX2                !
 ! D2    D(6,1,2,8)            180.0            estimate D2E/DX2                !
 ! D3    D(7,1,2,3)            180.0            estimate D2E/DX2                !
 ! D4    D(7,1,2,8)              0.0            estimate D2E/DX2                !
 ! D5    D(2,1,6,5)              0.0            estimate D2E/DX2                !
 ! D6    D(2,1,6,12)           180.0            estimate D2E/DX2                !
 ! D7    D(7,1,6,5)            180.0            estimate D2E/DX2                !
 ! D8    D(7,1,6,12)             0.0            estimate D2E/DX2                !
 ! D9    D(1,2,3,4)              0.0            estimate D2E/DX2                !
 ! D10   D(1,2,3,9)            180.0            estimate D2E/DX2                !
 ! D11   D(8,2,3,4)            180.0            estimate D2E/DX2                !
 ! D12   D(8,2,3,9)              0.0            estimate D2E/DX2                !
 ! D13   D(2,3,4,5)              0.0            estimate D2E/DX2                !
 ! D14   D(2,3,4,10)           180.0            estimate D2E/DX2                !
 ! D15   D(9,3,4,5)            180.0            estimate D2E/DX2                !
 ! D16   D(9,3,4,10)             0.0            estimate D2E/DX2                !
 ! D17   D(3,4,5,6)              0.0            estimate D2E/DX2                !
 ! D18   D(3,4,5,11)           180.0            estimate D2E/DX2                !
 ! D19   D(10,4,5,6)           180.0            estimate D2E/DX2                !
 ! D20   D(10,4,5,11)            0.0            estimate D2E/DX2                !
 ! D21   D(4,5,6,1)              0.0            estimate D2E/DX2                !
 ! D22   D(4,5,6,12)           180.0            estimate D2E/DX2                !
 ! D23   D(11,5,6,1)           180.0            estimate D2E/DX2                !
 ! D24   D(11,5,6,12)            0.0            estimate D2E/DX2                !
 --------------------------------------------------------------------------------
 Trust Radius=3.00D-01 FncErr=1.00D-07 GrdErr=1.00D-06
 Number of steps in this run=     64 maximum allowed number of steps=    100.
 GradGradGradGradGradGradGradGradGradGradGradGradGradGradGradGradGradGrad

 Leave Link  103 at Mon May  3 11:17:44 2021, MaxMem=    33554432 cpu:         0.0
 (Enter /opt/app/gaussian09/e01/g09/l202.exe)
                          Input orientation:                          
 ---------------------------------------------------------------------
 Center     Atomic      Atomic             Coordinates (Angstroms)
 Number     Number       Type             X           Y           Z
 ---------------------------------------------------------------------
      1          6           0        5.860000    4.130420    2.000000
      2          6           0        5.160000    5.342860    2.000000
      3          6           0        3.760000    5.342850    2.000000
      4          6           0        3.060000    4.130420    2.000000
      5          6           0        3.760000    2.917980    2.000000
      6          6           0        5.160000    2.917990    2.000000
      7          1           0        6.920000    4.130420    2.000000
      8          1           0        5.690000    6.260840    2.000000
      9          1           0        3.230000    6.260840    2.000000
     10          1           0        2.000000    4.130420    2.000000
     11          1           0        3.230000    2.000000    2.000000
     12          1           0        5.690000    2.000000    2.000000
 ---------------------------------------------------------------------
                    Distance matrix (angstroms):
                    1          2          3          4          5
     1  C    0.000000
     2  C    1.400004   0.000000
     3  C    2.424868   1.400000   0.000000
     4  C    2.800000   2.424873   1.399995   0.000000
     5  C    2.424873   2.800008   2.424870   1.400004   0.000000
     6  C    1.399995   2.424870   2.799990   2.424868   1.400000
     7  H    1.060000   2.137197   3.384610   3.860000   3.384614
     8  H    2.137192   1.059994   2.137196   3.384611   3.860002
     9  H    3.384611   2.137191   1.060003   2.137192   3.384614
    10  H    3.860000   3.384614   2.137191   1.060000   2.137197
    11  H    3.384611   3.860002   3.384604   2.137192   1.059994
    12  H    2.137192   3.384614   3.859993   3.384611   2.137191
                    6          7          8          9         10
     6  C    0.000000
     7  H    2.137191   0.000000
     8  H    3.384604   2.459998   0.000000
     9  H    3.859993   4.260844   2.460000   0.000000
    10  H    3.384610   4.920000   4.260844   2.459998   0.000000
    11  H    2.137196   4.260844   4.919996   4.260840   2.459998
    12  H    1.060003   2.459998   4.260840   4.919996   4.260844
                   11         12
    11  H    0.000000
    12  H    2.460000   0.000000
 Stoichiometry    C6H6
 Framework group  C2H[SGH(C6H6)]
 Deg. of freedom    11
 Full point group                 C2H     NOp   4
 Largest Abelian subgroup         C2H     NOp   4
 Largest concise Abelian subgroup C2      NOp   2
                         Standard orientation:                         
 ---------------------------------------------------------------------
 Center     Atomic      Atomic             Coordinates (Angstroms)
 Number     Number       Type             X           Y           Z
 ---------------------------------------------------------------------
      1          6           0        1.212437   -0.699998    0.000000
      2          6           0        1.212437    0.700006    0.000000
      3          6           0       -0.000005    1.399995    0.000000
      4          6           0       -1.212437    0.699998    0.000000
      5          6           0       -1.212437   -0.700006    0.000000
      6          6           0        0.000005   -1.399995    0.000000
      7          1           0        2.130424   -1.229997    0.000000
      8          1           0        2.130419    1.230001    0.000000
      9          1           0       -0.000005    2.459998    0.000000
     10          1           0       -2.130424    1.229997    0.000000
     11          1           0       -2.130419   -1.230001    0.000000
     12          1           0        0.000005   -2.459998    0.000000
 ---------------------------------------------------------------------
 Rotational constants (GHZ):      5.6875778      5.6875552      2.8437833
 Leave Link  202 at Mon May  3 11:17:44 2021, MaxMem=    33554432 cpu:         0.0
 (Enter /opt/app/gaussian09/e01/g09/l301.exe)
 Standard basis: 6-31G(d) (6D, 7F)
 Ernie: Thresh=  0.10000D-02 Tol=  0.10000D-05 Strict=F.
 There are    39 symmetry adapted cartesian basis functions of AG  symmetry.
 There are    12 symmetry adapted cartesian basis functions of BG  symmetry.
 There are    12 symmetry adapted cartesian basis functions of AU  symmetry.
 There are    39 symmetry adapted cartesian basis functions of BU  symmetry.
 There are    39 symmetry adapted basis functions of AG  symmetry.
 There are    12 symmetry adapted basis functions of BG  symmetry.
 There are    12 symmetry adapted basis functions of AU  symmetry.
 There are    39 symmetry adapted basis functions of BU  symmetry.
   102 basis functions,   192 primitive gaussians,   102 cartesian basis functions
    21 alpha electrons       21 beta electrons
       nuclear repulsion energy       203.5435648083 Hartrees.
 IExCor=  402 DFT=T Ex+Corr=B3LYP ExCW=0 ScaHFX=  0.200000
 ScaDFX=  0.800000  0.720000  1.000000  0.810000 ScalE2=  1.000000  1.000000
 IRadAn=      5 IRanWt=     -1 IRanGd=            0 ICorTp=0 IEmpDi=  4
 NAtoms=   12 NActive=   12 NUniq=    6 SFac= 4.00D+00 NAtFMM=   60 NAOKFM=F Big=F
 Integral buffers will be    131072 words long.
 Raffenetti 2 integral format.
 Two-electron integral symmetry is turned on.
 Leave Link  301 at Mon May  3 11:17:45 2021, MaxMem=    33554432 cpu:         0.1
 (Enter /opt/app/gaussian09/e01/g09/l302.exe)
 NPDir=0 NMtPBC=     1 NCelOv=     1 NCel=       1 NClECP=     1 NCelD=      1
         NCelK=      1 NCelE2=     1 NClLst=     1 CellRange=     0.0.
 One-electron integrals computed using PRISM.
 One-electron integral symmetry used in STVInt
 NBasis=   102 RedAO= T EigKep=  5.25D-04  NBF=    39    12    12    39
 NBsUse=   102 1.00D-06 EigRej= -1.00D+00 NBFU=    39    12    12    39
 Precomputing XC quadrature grid using
 IXCGrd= 4 IRadAn=           5 IRanWt=          -1 IRanGd=           0 AccXCQ= 0.00D+00.
 Generated NRdTot=       0 NPtTot=           0 NUsed=           0 NTot=          32
 NSgBfM=   102   102   102   102   102 MxSgAt=    12 MxSgA2=    12.
 Leave Link  302 at Mon May  3 11:17:47 2021, MaxMem=    33554432 cpu:         0.4
 (Enter /opt/app/gaussian09/e01/g09/l303.exe)
 DipDrv:  MaxL=1.
 Leave Link  303 at Mon May  3 11:17:47 2021, MaxMem=    33554432 cpu:         0.0
 (Enter /opt/app/gaussian09/e01/g09/l401.exe)
 ExpMin= 1.61D-01 ExpMax= 3.05D+03 ExpMxC= 4.57D+02 IAcc=3 IRadAn=         5 AccDes= 0.00D+00
 Harris functional with IExCor=  402 and IRadAn=       5 diagonalized for initial guess.
 HarFok:  IExCor=  402 AccDes= 0.00D+00 IRadAn=         5 IDoV= 1 UseB2=F ITyADJ=14
 ICtDFT=  3500011 ScaDFX=  1.000000  1.000000  1.000000  1.000000
 FoFCou: FMM=F IPFlag=           0 FMFlag=      100000 FMFlg1=           0
         NFxFlg=           0 DoJE=T BraDBF=F KetDBF=T FulRan=T
         wScrn=  0.000000 ICntrl=     500 IOpCl=  0 I1Cent=   200000004 NGrid=           0
         NMat0=    1 NMatS0=      1 NMatT0=    0 NMatD0=    1 NMtDS0=    0 NMtDT0=    0
 Petite list used in FoFCou.
 Harris En= -232.281578308191    
 JPrj=0 DoOrth=F DoCkMO=F.
 Initial guess orbital symmetries:
       Occupied  (AG) (BU) (BU) (AG) (AG) (BU) (AG) (BU) (BU) (AG)
                 (AG) (AG) (BU) (BU) (BU) (BU) (AG) (AG) (AU) (BG)
                 (BG)
       Virtual   (AU) (AU) (BG) (AG) (BU) (BU) (AG) (AG) (BU) (BU)
                 (BU) (AG) (AG) (BU) (BU) (AG) (AU) (AG) (AG) (AG)
                 (AG) (BG) (BG) (BU) (BU) (AU) (AU) (BG) (BU) (AG)
                 (AG) (BU) (BU) (BU) (BU) (AG) (AG) (AG) (AG) (BU)
                 (BU) (BU) (BG) (AU) (AU) (AU) (AG) (AG) (BG) (BG)
                 (AG) (BU) (AG) (BU) (BU) (BU) (AG) (AG) (BU) (BU)
                 (AU) (AU) (BG) (BG) (BG) (AG) (AG) (AU) (AG) (AG)
                 (BU) (BU) (BU) (AG) (BU) (AG) (BU) (BU) (AG) (AG)
                 (BU)
 The electronic state of the initial guess is 1-AG.
 Leave Link  401 at Mon May  3 11:17:49 2021, MaxMem=    33554432 cpu:         1.1
 (Enter /opt/app/gaussian09/e01/g09/l502.exe)
 Closed shell SCF:
 Using DIIS extrapolation, IDIIS=  1040.
 Integral symmetry usage will be decided dynamically.
 Keep R1 ints in memory in symmetry-blocked form, NReq=17600710.
 IVT=       51370 IEndB=       51370 NGot=    33554432 MDV=    29753456
 LenX=    29753456 LenY=    29742611
 Requested convergence on RMS density matrix=1.00D-08 within 128 cycles.
 Requested convergence on MAX density matrix=1.00D-06.
 Requested convergence on             energy=1.00D-06.
 No special actions if energy rises.
 FoFCou: FMM=F IPFlag=           0 FMFlag=           0 FMFlg1=           0
         NFxFlg=           0 DoJE=F BraDBF=F KetDBF=F FulRan=T
         wScrn=  0.000000 ICntrl=     600 IOpCl=  0 I1Cent=           0 NGrid=           0
         NMat0=    1 NMatS0=   5253 NMatT0=    0 NMatD0=    1 NMtDS0=    0 NMtDT0=    0
 Petite list used in FoFCou.
 Integral accuracy reduced to 1.0D-05 until final iterations.

 Cycle   1  Pass 0  IDiag  1:
 E= -232.091217308667    
 DIIS: error= 4.55D-02 at cycle   1 NSaved=   1.
 NSaved= 1 IEnMin= 1 EnMin= -232.091217308667     IErMin= 1 ErrMin= 4.55D-02
 ErrMax= 4.55D-02  0.00D+00 EMaxC= 1.00D-01 BMatC= 1.34D-01 BMatP= 1.34D-01
 IDIUse=3 WtCom= 5.45D-01 WtEn= 4.55D-01
 Coeff-Com:  0.100D+01
 Coeff-En:   0.100D+01
 Coeff:      0.100D+01
 Gap=     0.249 Goal=   None    Shift=    0.000
 GapD=    0.249 DampG=1.000 DampE=0.500 DampFc=0.5000 IDamp=-1.
 Damping current iteration by 5.00D-01
 RMSDP=8.33D-03 MaxDP=1.10D-01              OVMax= 1.50D-01

 Cycle   2  Pass 0  IDiag  1:
 E= -232.166155253958     Delta-E=       -0.074937945291 Rises=F Damp=T
 DIIS: error= 8.25D-03 at cycle   2 NSaved=   2.
 NSaved= 2 IEnMin= 2 EnMin= -232.166155253958     IErMin= 2 ErrMin= 8.25D-03
 ErrMax= 8.25D-03  0.00D+00 EMaxC= 1.00D-01 BMatC= 6.51D-03 BMatP= 1.34D-01
 IDIUse=3 WtCom= 9.17D-01 WtEn= 8.25D-02
 Coeff-Com: -0.137D-01 0.101D+01
 Coeff-En:   0.000D+00 0.100D+01
 Coeff:     -0.126D-01 0.101D+01
 Gap=     0.252 Goal=   None    Shift=    0.000
 RMSDP=1.73D-03 MaxDP=1.70D-02 DE=-7.49D-02 OVMax= 8.59D-02

 Cycle   3  Pass 0  IDiag  1:
 E= -232.244696260156     Delta-E=       -0.078541006198 Rises=F Damp=F
 DIIS: error= 4.62D-03 at cycle   3 NSaved=   3.
 NSaved= 3 IEnMin= 3 EnMin= -232.244696260156     IErMin= 3 ErrMin= 4.62D-03
 ErrMax= 4.62D-03  0.00D+00 EMaxC= 1.00D-01 BMatC= 1.02D-03 BMatP= 6.51D-03
 IDIUse=3 WtCom= 9.54D-01 WtEn= 4.62D-02
 Coeff-Com: -0.418D-01 0.252D+00 0.790D+00
 Coeff-En:   0.000D+00 0.000D+00 0.100D+01
 Coeff:     -0.399D-01 0.240D+00 0.800D+00
 Gap=     0.248 Goal=   None    Shift=    0.000
 RMSDP=4.43D-04 MaxDP=3.58D-03 DE=-7.85D-02 OVMax= 7.77D-03

 Cycle   4  Pass 0  IDiag  1:
 E= -232.245613019263     Delta-E=       -0.000916759106 Rises=F Damp=F
 DIIS: error= 6.49D-04 at cycle   4 NSaved=   4.
 NSaved= 4 IEnMin= 4 EnMin= -232.245613019263     IErMin= 4 ErrMin= 6.49D-04
 ErrMax= 6.49D-04  0.00D+00 EMaxC= 1.00D-01 BMatC= 2.99D-05 BMatP= 1.02D-03
 IDIUse=3 WtCom= 9.94D-01 WtEn= 6.49D-03
 Coeff-Com: -0.818D-02 0.172D-01 0.178D+00 0.813D+00
 Coeff-En:   0.000D+00 0.000D+00 0.000D+00 0.100D+01
 Coeff:     -0.813D-02 0.171D-01 0.177D+00 0.814D+00
 Gap=     0.248 Goal=   None    Shift=    0.000
 RMSDP=5.66D-05 MaxDP=4.30D-04 DE=-9.17D-04 OVMax= 9.85D-04

 Cycle   5  Pass 0  IDiag  1:
 E= -232.245639820549     Delta-E=       -0.000026801286 Rises=F Damp=F
 DIIS: error= 1.92D-05 at cycle   5 NSaved=   5.
 NSaved= 5 IEnMin= 5 EnMin= -232.245639820549     IErMin= 5 ErrMin= 1.92D-05
 ErrMax= 1.92D-05  0.00D+00 EMaxC= 1.00D-01 BMatC= 2.26D-08 BMatP= 2.99D-05
 IDIUse=1 WtCom= 1.00D+00 WtEn= 0.00D+00
 Coeff-Com: -0.281D-03-0.312D-03 0.592D-02 0.484D-01 0.946D+00
 Coeff:     -0.281D-03-0.312D-03 0.592D-02 0.484D-01 0.946D+00
 Gap=     0.248 Goal=   None    Shift=    0.000
 RMSDP=2.65D-06 MaxDP=2.22D-05 DE=-2.68D-05 OVMax= 3.26D-05

 Initial convergence to 1.0D-05 achieved.  Increase integral accuracy.
 Cycle   6  Pass 1  IDiag  1:
 E= -232.245632689668     Delta-E=        0.000007130880 Rises=F Damp=F
 DIIS: error= 4.57D-06 at cycle   1 NSaved=   1.
 NSaved= 1 IEnMin= 1 EnMin= -232.245632689668     IErMin= 1 ErrMin= 4.57D-06
 ErrMax= 4.57D-06  0.00D+00 EMaxC= 1.00D-01 BMatC= 6.48D-10 BMatP= 6.48D-10
 IDIUse=1 WtCom= 1.00D+00 WtEn= 0.00D+00
 Coeff-Com:  0.100D+01
 Coeff:      0.100D+01
 Gap=     0.248 Goal=   None    Shift=    0.000
 RMSDP=2.65D-06 MaxDP=2.22D-05 DE= 7.13D-06 OVMax= 1.34D-05

 Cycle   7  Pass 1  IDiag  1:
 E= -232.245632690587     Delta-E=       -0.000000000919 Rises=F Damp=F
 DIIS: error= 1.29D-06 at cycle   2 NSaved=   2.
 NSaved= 2 IEnMin= 2 EnMin= -232.245632690587     IErMin= 2 ErrMin= 1.29D-06
 ErrMax= 1.29D-06  0.00D+00 EMaxC= 1.00D-01 BMatC= 1.02D-10 BMatP= 6.48D-10
 IDIUse=1 WtCom= 1.00D+00 WtEn= 0.00D+00
 Coeff-Com:  0.203D+00 0.797D+00
 Coeff:      0.203D+00 0.797D+00
 Gap=     0.248 Goal=   None    Shift=    0.000
 RMSDP=1.87D-07 MaxDP=2.11D-06 DE=-9.19D-10 OVMax= 3.63D-06

 Cycle   8  Pass 1  IDiag  1:
 E= -232.245632690650     Delta-E=       -0.000000000062 Rises=F Damp=F
 DIIS: error= 6.96D-07 at cycle   3 NSaved=   3.
 NSaved= 3 IEnMin= 3 EnMin= -232.245632690650     IErMin= 3 ErrMin= 6.96D-07
 ErrMax= 6.96D-07  0.00D+00 EMaxC= 1.00D-01 BMatC= 4.02D-11 BMatP= 1.02D-10
 IDIUse=1 WtCom= 1.00D+00 WtEn= 0.00D+00
 Coeff-Com: -0.181D-01 0.379D+00 0.639D+00
 Coeff:     -0.181D-01 0.379D+00 0.639D+00
 Gap=     0.248 Goal=   None    Shift=    0.000
 RMSDP=7.24D-08 MaxDP=9.24D-07 DE=-6.24D-11 OVMax= 1.52D-06

 Cycle   9  Pass 1  IDiag  1:
 E= -232.245632690689     Delta-E=       -0.000000000039 Rises=F Damp=F
 DIIS: error= 8.60D-08 at cycle   4 NSaved=   4.
 NSaved= 4 IEnMin= 4 EnMin= -232.245632690689     IErMin= 4 ErrMin= 8.60D-08
 ErrMax= 8.60D-08  0.00D+00 EMaxC= 1.00D-01 BMatC= 7.77D-13 BMatP= 4.02D-11
 IDIUse=1 WtCom= 1.00D+00 WtEn= 0.00D+00
 Coeff-Com: -0.107D-01 0.146D+00 0.275D+00 0.590D+00
 Coeff:     -0.107D-01 0.146D+00 0.275D+00 0.590D+00
 Gap=     0.248 Goal=   None    Shift=    0.000
 RMSDP=1.06D-08 MaxDP=1.76D-07 DE=-3.92D-11 OVMax= 3.81D-07

 Cycle  10  Pass 1  IDiag  1:
 E= -232.245632690690     Delta-E=       -0.000000000001 Rises=F Damp=F
 DIIS: error= 3.25D-08 at cycle   5 NSaved=   5.
 NSaved= 5 IEnMin= 5 EnMin= -232.245632690690     IErMin= 5 ErrMin= 3.25D-08
 ErrMax= 3.25D-08  0.00D+00 EMaxC= 1.00D-01 BMatC= 1.05D-13 BMatP= 7.77D-13
 IDIUse=1 WtCom= 1.00D+00 WtEn= 0.00D+00
 Coeff-Com: -0.407D-02 0.371D-01 0.788D-01 0.300D+00 0.588D+00
 Coeff:     -0.407D-02 0.371D-01 0.788D-01 0.300D+00 0.588D+00
 Gap=     0.248 Goal=   None    Shift=    0.000
 RMSDP=3.06D-09 MaxDP=6.43D-08 DE=-1.36D-12 OVMax= 1.11D-07

 SCF Done:  E(RB3LYP) =  -232.245632691     A.U. after   10 cycles
            NFock= 10  Conv=0.31D-08     -V/T= 2.0093
 KE= 2.301065286094D+02 PE=-9.445668800668D+02 EE= 2.786711539584D+02
 Leave Link  502 at Mon May  3 11:18:00 2021, MaxMem=    33554432 cpu:        11.4
 (Enter /opt/app/gaussian09/e01/g09/l601.exe)
 Copying SCF densities to generalized density rwf, IOpCl= 0 IROHF=0.

 **********************************************************************

            Population analysis using the SCF density.

 **********************************************************************

 Orbital symmetries:
       Occupied  (AG) (BU) (BU) (AG) (AG) (BU) (AG) (BU) (BU) (AG)
                 (AG) (AG) (BU) (BU) (BU) (BU) (AU) (AG) (AG) (BG)
                 (BG)
       Virtual   (AU) (AU) (AG) (BU) (BU) (BG) (AG) (AG) (BU) (AG)
                 (AG) (BU) (BU) (BU) (AU) (AG) (BU) (AG) (AG) (AG)
                 (AG) (BG) (BG) (BU) (BU) (AU) (AU) (BG) (BU) (AG)
                 (AG) (BU) (BU) (BU) (BU) (AG) (AG) (AG) (AG) (BU)
                 (BU) (BU) (BG) (AU) (AG) (AG) (AU) (AU) (BG) (BG)
                 (AG) (BU) (AG) (BU) (BU) (BU) (AG) (AG) (AU) (AU)
                 (BU) (BU) (BG) (BG) (BG) (AG) (AG) (AU) (AG) (AG)
                 (BU) (BU) (BU) (AG) (BU) (AG) (BU) (BU) (AG) (AG)
                 (BU)
 The electronic state is 1-AG.
 Alpha  occ. eigenvalues --  -10.18472 -10.18446 -10.18446 -10.18392 -10.18392
 Alpha  occ. eigenvalues --  -10.18366  -0.84435  -0.74050  -0.74050  -0.60058
 Alpha  occ. eigenvalues --   -0.60058  -0.52247  -0.46765  -0.43609  -0.41993
 Alpha  occ. eigenvalues --   -0.41993  -0.35728  -0.34224  -0.34223  -0.24499
 Alpha  occ. eigenvalues --   -0.24499
 Alpha virt. eigenvalues --    0.00343   0.00343   0.10025   0.15219   0.15219
 Alpha virt. eigenvalues --    0.16250   0.18602   0.18602   0.19774   0.30390
 Alpha virt. eigenvalues --    0.30390   0.31704   0.31705   0.47652   0.52885
 Alpha virt. eigenvalues --    0.54815   0.54873   0.56092   0.59183   0.60242
 Alpha virt. eigenvalues --    0.60242   0.60353   0.60353   0.62888   0.62888
 Alpha virt. eigenvalues --    0.66848   0.66848   0.74570   0.85137   0.85977
 Alpha virt. eigenvalues --    0.85977   0.88387   0.88387   0.93799   0.93799
 Alpha virt. eigenvalues --    0.95802   0.96023   1.07798   1.07798   1.14038
 Alpha virt. eigenvalues --    1.14038   1.20311   1.26313   1.39619   1.44853
 Alpha virt. eigenvalues --    1.44853   1.48615   1.48615   1.51360   1.51360
 Alpha virt. eigenvalues --    1.76230   1.78632   1.88626   1.90925   2.00481
 Alpha virt. eigenvalues --    2.00482   2.06360   2.06361   2.14827   2.14827
 Alpha virt. eigenvalues --    2.15090   2.15091   2.30690   2.30692   2.31552
 Alpha virt. eigenvalues --    2.55443   2.55443   2.65098   2.71512   2.71513
 Alpha virt. eigenvalues --    2.71688   2.71689   2.77094   3.01118   3.42180
 Alpha virt. eigenvalues --    4.08834   4.12298   4.12298   4.33569   4.33569
 Alpha virt. eigenvalues --    4.66998
          Condensed to atoms (all electrons):
               1          2          3          4          5          6
     1  C    4.849205   0.549346  -0.029778  -0.041348  -0.029778   0.549350
     2  C    0.549346   4.849206   0.549348  -0.029778  -0.041348  -0.029778
     3  C   -0.029778   0.549348   4.849201   0.549350  -0.029778  -0.041348
     4  C   -0.041348  -0.029778   0.549350   4.849205   0.549346  -0.029778
     5  C   -0.029778  -0.041348  -0.029778   0.549346   4.849206   0.549348
     6  C    0.549350  -0.029778  -0.041348  -0.029778   0.549348   4.849201
     7  H    0.361994  -0.046023   0.005086   0.000597   0.005086  -0.046022
     8  H   -0.046023   0.361995  -0.046022   0.005086   0.000597   0.005086
     9  H    0.005086  -0.046023   0.361993  -0.046023   0.005086   0.000597
    10  H    0.000597   0.005086  -0.046022   0.361994  -0.046023   0.005086
    11  H    0.005086   0.000597   0.005086  -0.046023   0.361995  -0.046022
    12  H   -0.046023   0.005086   0.000597   0.005086  -0.046023   0.361993
               7          8          9         10         11         12
     1  C    0.361994  -0.046023   0.005086   0.000597   0.005086  -0.046023
     2  C   -0.046023   0.361995  -0.046023   0.005086   0.000597   0.005086
     3  C    0.005086  -0.046022   0.361993  -0.046022   0.005086   0.000597
     4  C    0.000597   0.005086  -0.046023   0.361994  -0.046023   0.005086
     5  C    0.005086   0.000597   0.005086  -0.046023   0.361995  -0.046023
     6  C   -0.046022   0.005086   0.000597   0.005086  -0.046022   0.361993
     7  H    0.604371  -0.006209  -0.000199   0.000017  -0.000199  -0.006210
     8  H   -0.006209   0.604370  -0.006210  -0.000199   0.000017  -0.000199
     9  H   -0.000199  -0.006210   0.604374  -0.006210  -0.000199   0.000017
    10  H    0.000017  -0.000199  -0.006210   0.604371  -0.006209  -0.000199
    11  H   -0.000199   0.000017  -0.000199  -0.006209   0.604370  -0.006210
    12  H   -0.006210  -0.000199   0.000017  -0.000199  -0.006210   0.604374
 Mulliken charges:
               1
     1  C   -0.127713
     2  C   -0.127713
     3  C   -0.127711
     4  C   -0.127713
     5  C   -0.127713
     6  C   -0.127711
     7  H    0.127712
     8  H    0.127713
     9  H    0.127711
    10  H    0.127712
    11  H    0.127713
    12  H    0.127711
 Sum of Mulliken charges =  -0.00000
 Mulliken charges with hydrogens summed into heavy atoms:
               1
     1  C   -0.000000
     2  C    0.000000
     3  C    0.000000
     4  C   -0.000000
     5  C    0.000000
     6  C    0.000000
 Electronic spatial extent (au):  <R**2>=            456.7441
 Charge=              0.0000 electrons
 Dipole moment (field-independent basis, Debye):
    X=             -0.0000    Y=             -0.0000    Z=              0.0000  Tot=              0.0000
 Quadrupole moment (field-independent basis, Debye-Ang):
   XX=            -31.2744   YY=            -31.2745   ZZ=            -38.4714
   XY=              0.0000   XZ=              0.0000   YZ=              0.0000
 Traceless Quadrupole moment (field-independent basis, Debye-Ang):
   XX=              2.3991   YY=              2.3989   ZZ=             -4.7980
   XY=              0.0000   XZ=              0.0000   YZ=              0.0000
 Octapole moment (field-independent basis, Debye-Ang**2):
  XXX=             -0.0000  YYY=              0.0000  ZZZ=              0.0000  XYY=             -0.0000
  XXY=             -0.0000  XXZ=              0.0000  XZZ=              0.0000  YZZ=             -0.0000
  YYZ=              0.0000  XYZ=              0.0000
 Hexadecapole moment (field-independent basis, Debye-Ang**3):
 XXXX=           -268.1469 YYYY=           -268.1477 ZZZZ=            -39.9130 XXXY=              0.0002
 XXXZ=              0.0000 YYYX=              0.0001 YYYZ=              0.0000 ZZZX=              0.0000
 ZZZY=              0.0000 XXYY=            -89.3823 XXZZ=            -59.7315 YYZZ=            -59.7314
 XXYZ=              0.0000 YYXZ=              0.0000 ZZXY=              0.0000
 N-N= 2.035435648083D+02 E-N=-9.445668824907D+02  KE= 2.301065286094D+02
 Symmetry AG   KE= 1.116448618169D+02
 Symmetry BG   KE= 4.462978366519D+00
 Symmetry AU   KE= 1.862187371867D+00
 Symmetry BU   KE= 1.121365010542D+02
 No NMR shielding tensors so no spin-rotation constants.
 Leave Link  601 at Mon May  3 11:18:02 2021, MaxMem=    33554432 cpu:         0.1
 (Enter /opt/app/gaussian09/e01/g09/l701.exe)
 Compute integral first derivatives.
 ... and contract with generalized density number  0.
 Leave Link  701 at Mon May  3 11:18:03 2021, MaxMem=    33554432 cpu:         0.1
 (Enter /opt/app/gaussian09/e01/g09/l702.exe)
 L702 exits ... SP integral derivatives will be done elsewhere.
 Leave Link  702 at Mon May  3 11:18:04 2021, MaxMem=    33554432 cpu:         0.0
 (Enter /opt/app/gaussian09/e01/g09/l703.exe)
 Compute integral first derivatives, UseDBF=F ICtDFT=           0.
 Integral derivatives from FoFJK, PRISM(SPDF).
 Calling FoFJK, ICntrl=      2127 FMM=F ISym2X=1 I1Cent= 0 IOpClX= 0 NMat=1 NMatS=1 NMatT=0.
 FoFJK:  IHMeth= 1 ICntrl=    2127 DoSepK=F KAlg= 0 I1Cent=   0 FoldK=F
 IRaf=         0 NMat=   1 IRICut=       1 DoRegI=T DoRafI=F ISym2E= 1.
 FoFCou: FMM=F IPFlag=           0 FMFlag=      100000 FMFlg1=         800
         NFxFlg=           0 DoJE=F BraDBF=F KetDBF=F FulRan=T
         wScrn=  0.000000 ICntrl=    2127 IOpCl=  0 I1Cent=           0 NGrid=           0
         NMat0=    1 NMatS0=      1 NMatT0=    0 NMatD0=    1 NMtDS0=    0 NMtDT0=    0
 Petite list used in FoFCou.
 Leave Link  703 at Mon May  3 11:18:09 2021, MaxMem=    33554432 cpu:         4.0
 (Enter /opt/app/gaussian09/e01/g09/l716.exe)
 Dipole        =-1.77635684D-15-1.77635684D-15 0.00000000D+00
 ***** Axes restored to original set *****
 -------------------------------------------------------------------
 Center     Atomic                   Forces (Hartrees/Bohr)
 Number     Number              X              Y              Z
 -------------------------------------------------------------------
      1        6          -0.022607491    0.000005952   -0.000000000
      2        6          -0.011304773   -0.019587579   -0.000000000
      3        6           0.011304049   -0.019571012   -0.000000000
      4        6           0.022607491   -0.000005952   -0.000000000
      5        6           0.011304773    0.019587579   -0.000000000
      6        6          -0.011304049    0.019571012   -0.000000000
      7        1           0.019873487   -0.000000334   -0.000000000
      8        1           0.009938277    0.017215273   -0.000000000
      9        1          -0.009935809    0.017208482   -0.000000000
     10        1          -0.019873487    0.000000334   -0.000000000
     11        1          -0.009938277   -0.017215273   -0.000000000
     12        1           0.009935809   -0.017208482   -0.000000000
 -------------------------------------------------------------------
 Cartesian Forces:  Max     0.022607491 RMS     0.012288926
 Leave Link  716 at Mon May  3 11:18:09 2021, MaxMem=    33554432 cpu:         0.0
 (Enter /opt/app/gaussian09/e01/g09/l103.exe)

 GradGradGradGradGradGradGradGradGradGradGradGradGradGradGradGradGradGrad
 Berny optimization.
 FormGI is forming the generalized inverse of G from B-inverse, IUseBI=4.
 Internal  Forces:  Max     0.019878003 RMS     0.006687097
 Search for a local minimum.
 Step number   1 out of a maximum of   64
 All quantities printed in internal units (Hartrees-Bohrs-Radians)
 RMS Force = .66871D-02 SwitMx=.10000D-02 MixMth= 1
 Mixed Optimization -- RFO/linear search
 Second derivative matrix not updated -- first step.
 ITU=  0
     Eigenvalues ---    0.02089   0.02089   0.02089   0.02089   0.02089
     Eigenvalues ---    0.02089   0.02089   0.02089   0.02089   0.16000
     Eigenvalues ---    0.16000   0.16000   0.16000   0.16000   0.16000
     Eigenvalues ---    0.22000   0.22000   0.22000   0.38523   0.38523
     Eigenvalues ---    0.38523   0.38523   0.38524   0.38524   0.41452
     Eigenvalues ---    0.41452   0.45620   0.45621   0.45621   0.45621
 RFO step:  Lambda=-6.15212661D-03 EMin= 2.08872691D-02
 Linear search not attempted -- first point.
 Iteration  1 RMS(Cart)=  0.01508464 RMS(Int)=  0.00000003
 Iteration  2 RMS(Cart)=  0.00000003 RMS(Int)=  0.00000000
 ITry= 1 IFail=0 DXMaxC= 4.49D-02 DCOld= 1.00D+10 DXMaxT= 3.00D-01 DXLimC= 3.00D+00 Rises=F
 ClnCor:  largest displacement from symmetrization is 1.00D-13 for atom    12.
 Variable       Old X    -DE/DX   Delta X   Delta X   Delta X     New X
                                 (Linear)    (Quad)   (Total)
    R1        2.64562  -0.00274   0.00000  -0.00592  -0.00592   2.63970
    R2        2.64561  -0.00273   0.00000  -0.00591  -0.00591   2.63970
    R3        2.00311   0.01987   0.00000   0.05078   0.05078   2.05389
    R4        2.64562  -0.00273   0.00000  -0.00591  -0.00591   2.63970
    R5        2.00310   0.01988   0.00000   0.05079   0.05079   2.05389
    R6        2.64561  -0.00273   0.00000  -0.00591  -0.00591   2.63970
    R7        2.00311   0.01987   0.00000   0.05077   0.05077   2.05389
    R8        2.64562  -0.00274   0.00000  -0.00592  -0.00592   2.63970
    R9        2.00311   0.01987   0.00000   0.05078   0.05078   2.05389
   R10        2.64562  -0.00273   0.00000  -0.00591  -0.00591   2.63970
   R11        2.00310   0.01988   0.00000   0.05079   0.05079   2.05389
   R12        2.00311   0.01987   0.00000   0.05077   0.05077   2.05389
    A1        2.09439   0.00000   0.00000   0.00000   0.00000   2.09440
    A2        2.09439   0.00000   0.00000   0.00000   0.00000   2.09440
    A3        2.09440  -0.00000   0.00000  -0.00000  -0.00000   2.09439
    A4        2.09439   0.00000   0.00000   0.00001   0.00001   2.09439
    A5        2.09439   0.00000   0.00000   0.00000   0.00000   2.09440
    A6        2.09441  -0.00000   0.00000  -0.00001  -0.00001   2.09440
    A7        2.09440  -0.00000   0.00000  -0.00001  -0.00001   2.09440
    A8        2.09439   0.00000   0.00000   0.00001   0.00001   2.09439
    A9        2.09439   0.00000   0.00000   0.00000   0.00000   2.09439
   A10        2.09439   0.00000   0.00000   0.00000   0.00000   2.09440
   A11        2.09440  -0.00000   0.00000  -0.00000  -0.00000   2.09439
   A12        2.09439   0.00000   0.00000   0.00000   0.00000   2.09440
   A13        2.09439   0.00000   0.00000   0.00001   0.00001   2.09439
   A14        2.09439   0.00000   0.00000   0.00000   0.00000   2.09440
   A15        2.09441  -0.00000   0.00000  -0.00001  -0.00001   2.09440
   A16        2.09440  -0.00000   0.00000  -0.00001  -0.00001   2.09440
   A17        2.09439   0.00000   0.00000   0.00000   0.00000   2.09439
   A18        2.09439   0.00000   0.00000   0.00001   0.00001   2.09439
    D1        0.00000   0.00000   0.00000   0.00000   0.00000   0.00000
    D2        3.14159   0.00000   0.00000   0.00000   0.00000   3.14159
    D3        3.14159   0.00000   0.00000   0.00000   0.00000   3.14159
    D4        0.00000   0.00000   0.00000   0.00000   0.00000   0.00000
    D5        0.00000   0.00000   0.00000  -0.00000   0.00000   0.00000
    D6        3.14159  -0.00000   0.00000   0.00000   0.00000   3.14159
    D7        3.14159  -0.00000   0.00000  -0.00000   0.00000   3.14159
    D8        0.00000   0.00000   0.00000   0.00000   0.00000   0.00000
    D9        0.00000  -0.00000   0.00000  -0.00000   0.00000   0.00000
   D10        3.14159  -0.00000   0.00000  -0.00000   0.00000   3.14159
   D11        3.14159   0.00000   0.00000  -0.00000   0.00000   3.14159
   D12        0.00000  -0.00000   0.00000  -0.00000   0.00000   0.00000
   D13        0.00000   0.00000   0.00000   0.00000   0.00000   0.00000
   D14        3.14159  -0.00000   0.00000  -0.00000   0.00000   3.14159
   D15        3.14159  -0.00000   0.00000   0.00000   0.00000   3.14159
   D16        0.00000  -0.00000   0.00000  -0.00000   0.00000   0.00000
   D17        0.00000   0.00000   0.00000  -0.00000   0.00000   0.00000
   D18        3.14159   0.00000   0.00000  -0.00000   0.00000   3.14159
   D19        3.14159   0.00000   0.00000   0.00000   0.00000   3.14159
   D20        0.00000   0.00000   0.00000   0.00000   0.00000   0.00000
   D21        0.00000   0.00000   0.00000   0.00000   0.00000   0.00000
   D22        3.14159  -0.00000   0.00000  -0.00000   0.00000   3.14159
   D23        3.14159   0.00000   0.00000   0.00000   0.00000   3.14159
   D24        0.00000  -0.00000   0.00000  -0.00000   0.00000   0.00000
         Item               Value     Threshold  Converged?
 Maximum Force            0.019878     0.000015     NO 
 RMS     Force            0.006687     0.000010     NO 
 Maximum Displacement     0.044864     0.000060     NO 
 RMS     Displacement     0.015085     0.000040     NO 
 Predicted change in Energy=-3.124299D-03
 Lowest energy point so far.  Saving SCF results.
 GradGradGradGradGradGradGradGradGradGradGradGradGradGradGradGradGradGrad

 Leave Link  103 at Mon May  3 11:18:09 2021, MaxMem=    33554432 cpu:         0.0
 (Enter /opt/app/gaussian09/e01/g09/l202.exe)
                          Input orientation:                          
 ---------------------------------------------------------------------
 Center     Atomic      Atomic             Coordinates (Angstroms)
 Number     Number       Type             X           Y           Z
 ---------------------------------------------------------------------
      1          6           0        5.856871    4.130421    2.000000
      2          6           0        5.158435    5.340147    2.000000
      3          6           0        3.761565    5.340144    2.000000
      4          6           0        3.063129    4.130419    2.000000
      5          6           0        3.761565    2.920693    2.000000
      6          6           0        5.158435    2.920696    2.000000
      7          1           0        6.943741    4.130420    2.000000
      8          1           0        5.701870    6.281404    2.000000
      9          1           0        3.218130    6.281401    2.000000
     10          1           0        1.976259    4.130420    2.000000
     11          1           0        3.218130    1.979436    2.000000
     12          1           0        5.701870    1.979439    2.000000
 ---------------------------------------------------------------------
                    Distance matrix (angstroms):
                    1          2          3          4          5
     1  C    0.000000
     2  C    1.396872   0.000000
     3  C    2.419450   1.396870   0.000000
     4  C    2.793741   2.419452   1.396870   0.000000
     5  C    2.419452   2.793744   2.419451   1.396872   0.000000
     6  C    1.396870   2.419451   2.793738   2.419450   1.396870
     7  H    1.086870   2.156561   3.404361   3.880612   3.404363
     8  H    2.156561   1.086870   2.156561   3.404363   3.880614
     9  H    3.404360   2.156558   1.086870   2.156559   3.404362
    10  H    3.880612   3.404363   2.156559   1.086870   2.156561
    11  H    3.404363   3.880614   3.404362   2.156561   1.086870
    12  H    2.156559   3.404362   3.880608   3.404360   2.156558
                    6          7          8          9         10
     6  C    0.000000
     7  H    2.156559   0.000000
     8  H    3.404362   2.483743   0.000000
     9  H    3.880608   4.301964   2.483740   0.000000
    10  H    3.404361   4.967482   4.301966   2.483739   0.000000
    11  H    2.156561   4.301966   4.967484   4.301965   2.483743
    12  H    1.086870   2.483739   4.301965   4.967478   4.301964
                   11         12
    11  H    0.000000
    12  H    2.483740   0.000000
 Stoichiometry    C6H6
 Framework group  C2H[SGH(C6H6)]
 Deg. of freedom    11
 Full point group                 C2H     NOp   4
 RotChk:  IX=2 Diff= 2.00D+00
 Largest Abelian subgroup         C2H     NOp   4
 Largest concise Abelian subgroup C2      NOp   2
                         Standard orientation:                         
 ---------------------------------------------------------------------
 Center     Atomic      Atomic             Coordinates (Angstroms)
 Number     Number       Type             X           Y           Z
 ---------------------------------------------------------------------
      1          6           0        0.698436    1.209725   -0.000000
      2          6           0       -0.698436    1.209727   -0.000000
      3          6           0       -1.396869    0.000000   -0.000000
      4          6           0       -0.698436   -1.209725   -0.000000
      5          6           0        0.698436   -1.209727   -0.000000
      6          6           0        1.396869   -0.000000   -0.000000
      7          1           0        1.241872    2.150982   -0.000000
      8          1           0       -1.241870    2.150984   -0.000000
      9          1           0       -2.483739    0.000002   -0.000000
     10          1           0       -1.241872   -2.150982   -0.000000
     11          1           0        1.241870   -2.150984   -0.000000
     12          1           0        2.483739   -0.000002   -0.000000
 ---------------------------------------------------------------------
 Rotational constants (GHZ):      5.6850242      5.6850132      2.8425094
 Leave Link  202 at Mon May  3 11:18:09 2021, MaxMem=    33554432 cpu:         0.0
 (Enter /opt/app/gaussian09/e01/g09/l301.exe)
 Standard basis: 6-31G(d) (6D, 7F)
 Ernie: Thresh=  0.10000D-02 Tol=  0.10000D-05 Strict=F.
 There are    39 symmetry adapted cartesian basis functions of AG  symmetry.
 There are    12 symmetry adapted cartesian basis functions of BG  symmetry.
 There are    12 symmetry adapted cartesian basis functions of AU  symmetry.
 There are    39 symmetry adapted cartesian basis functions of BU  symmetry.
 There are    39 symmetry adapted basis functions of AG  symmetry.
 There are    12 symmetry adapted basis functions of BG  symmetry.
 There are    12 symmetry adapted basis functions of AU  symmetry.
 There are    39 symmetry adapted basis functions of BU  symmetry.
   102 basis functions,   192 primitive gaussians,   102 cartesian basis functions
    21 alpha electrons       21 beta electrons
       nuclear repulsion energy       203.1592664225 Hartrees.
 IExCor=  402 DFT=T Ex+Corr=B3LYP ExCW=0 ScaHFX=  0.200000
 ScaDFX=  0.800000  0.720000  1.000000  0.810000 ScalE2=  1.000000  1.000000
 IRadAn=      5 IRanWt=     -1 IRanGd=            0 ICorTp=0 IEmpDi=  4
 NAtoms=   12 NActive=   12 NUniq=    6 SFac= 4.00D+00 NAtFMM=   60 NAOKFM=F Big=F
 Integral buffers will be    131072 words long.
 Raffenetti 2 integral format.
 Two-electron integral symmetry is turned on.
 Leave Link  301 at Mon May  3 11:18:09 2021, MaxMem=    33554432 cpu:         0.0
 (Enter /opt/app/gaussian09/e01/g09/l302.exe)
 NPDir=0 NMtPBC=     1 NCelOv=     1 NCel=       1 NClECP=     1 NCelD=      1
         NCelK=      1 NCelE2=     1 NClLst=     1 CellRange=     0.0.
 One-electron integrals computed using PRISM.
 One-electron integral symmetry used in STVInt
 NBasis=   102 RedAO= T EigKep=  5.22D-04  NBF=    39    12    12    39
 NBsUse=   102 1.00D-06 EigRej= -1.00D+00 NBFU=    39    12    12    39
 Precomputing XC quadrature grid using
 IXCGrd= 4 IRadAn=           5 IRanWt=          -1 IRanGd=           0 AccXCQ= 0.00D+00.
 Generated NRdTot=       0 NPtTot=           0 NUsed=           0 NTot=          32
 NSgBfM=   102   102   102   102   102 MxSgAt=    12 MxSgA2=    12.
 Leave Link  302 at Mon May  3 11:18:09 2021, MaxMem=    33554432 cpu:         0.3
 (Enter /opt/app/gaussian09/e01/g09/l303.exe)
 DipDrv:  MaxL=1.
 Leave Link  303 at Mon May  3 11:18:09 2021, MaxMem=    33554432 cpu:         0.0
 (Enter /opt/app/gaussian09/e01/g09/l401.exe)
 Initial guess from the checkpoint file:  "benzene.chk"
 B after Tr=    -0.000000    0.000000    0.000000
         Rot=    0.707108   -0.000000    0.000000   -0.707106 Ang= -90.00 deg.
 Guess basis will be translated and rotated to current coordinates.
 JPrj=2 DoOrth=T DoCkMO=T.
 Initial guess orbital symmetries:
       Occupied  (AG) (BU) (BU) (AG) (AG) (BU) (AG) (BU) (BU) (AG)
                 (AG) (AG) (BU) (BU) (BU) (BU) (AU) (AG) (AG) (BG)
                 (BG)
       Virtual   (AG) (AG) (AG) (AG) (AG) (AG) (AG) (AG) (AG) (AG)
                 (AG) (AG) (AG) (AG) (AG) (AG) (AG) (AG) (AG) (AG)
                 (AG) (AG) (AG) (AG) (AG) (AG) (AG) (AG) (AG) (AG)
                 (BG) (BG) (BG) (BG) (BG) (BG) (BG) (BG) (BG) (BG)
                 (AU) (AU) (AU) (AU) (AU) (AU) (AU) (AU) (AU) (AU)
                 (AU) (BU) (BU) (BU) (BU) (BU) (BU) (BU) (BU) (BU)
                 (BU) (BU) (BU) (BU) (BU) (BU) (BU) (BU) (BU) (BU)
                 (BU) (BU) (BU) (BU) (BU) (BU) (BU) (BU) (BU) (BU)
                 (BU)
 The electronic state of the initial guess is 1-AG.
 Generating alternative initial guess.
 ExpMin= 1.61D-01 ExpMax= 3.05D+03 ExpMxC= 4.57D+02 IAcc=2 IRadAn=         4 AccDes= 0.00D+00
 Harris functional with IExCor=  402 and IRadAn=       4 diagonalized for initial guess.
 HarFok:  IExCor=  402 AccDes= 0.00D+00 IRadAn=         4 IDoV= 1 UseB2=F ITyADJ=14
 ICtDFT=  3500011 ScaDFX=  1.000000  1.000000  1.000000  1.000000
 FoFCou: FMM=F IPFlag=           0 FMFlag=      100000 FMFlg1=           0
         NFxFlg=           0 DoJE=T BraDBF=F KetDBF=T FulRan=T
         wScrn=  0.000000 ICntrl=     500 IOpCl=  0 I1Cent=   200000004 NGrid=           0
         NMat0=    1 NMatS0=      1 NMatT0=    0 NMatD0=    1 NMtDS0=    0 NMtDT0=    0
 Petite list used in FoFCou.
 Harris En= -232.277464621785    
 Leave Link  401 at Mon May  3 11:18:10 2021, MaxMem=    33554432 cpu:         0.5
 (Enter /opt/app/gaussian09/e01/g09/l502.exe)
 Closed shell SCF:
 Using DIIS extrapolation, IDIIS=  1040.
 Integral symmetry usage will be decided dynamically.
 Keep R1 ints in memory in symmetry-blocked form, NReq=17600710.
 IVT=       51370 IEndB=       51370 NGot=    33554432 MDV=    29753456
 LenX=    29753456 LenY=    29742611
 Requested convergence on RMS density matrix=1.00D-08 within 128 cycles.
 Requested convergence on MAX density matrix=1.00D-06.
 Requested convergence on             energy=1.00D-06.
 No special actions if energy rises.
 FoFCou: FMM=F IPFlag=           0 FMFlag=           0 FMFlg1=           0
         NFxFlg=           0 DoJE=F BraDBF=F KetDBF=F FulRan=T
         wScrn=  0.000000 ICntrl=     600 IOpCl=  0 I1Cent=           0 NGrid=           0
         NMat0=    1 NMatS0=   5253 NMatT0=    0 NMatD0=    1 NMtDS0=    0 NMtDT0=    0
 Petite list used in FoFCou.
 Integral accuracy reduced to 1.0D-05 until final iterations.

 Cycle   1  Pass 0  IDiag  1:
 E= -232.247994476854    
 DIIS: error= 2.61D-03 at cycle   1 NSaved=   1.
 NSaved= 1 IEnMin= 1 EnMin= -232.247994476854     IErMin= 1 ErrMin= 2.61D-03
 ErrMax= 2.61D-03  0.00D+00 EMaxC= 1.00D-01 BMatC= 4.64D-04 BMatP= 4.64D-04
 IDIUse=3 WtCom= 9.74D-01 WtEn= 2.61D-02
 Coeff-Com:  0.100D+01
 Coeff-En:   0.100D+01
 Coeff:      0.100D+01
 Gap=     0.854 Goal=   None    Shift=    0.000
 GapD=    0.854 DampG=2.000 DampE=1.000 DampFc=2.0000 IDamp=-1.
 RMSDP=3.99D-04 MaxDP=4.09D-03              OVMax= 7.17D-03

 Cycle   2  Pass 0  IDiag  1:
 E= -232.248619808484     Delta-E=       -0.000625331631 Rises=F Damp=F
 DIIS: error= 7.34D-04 at cycle   2 NSaved=   2.
 NSaved= 2 IEnMin= 2 EnMin= -232.248619808484     IErMin= 2 ErrMin= 7.34D-04
 ErrMax= 7.34D-04  0.00D+00 EMaxC= 1.00D-01 BMatC= 3.62D-05 BMatP= 4.64D-04
 IDIUse=3 WtCom= 9.93D-01 WtEn= 7.34D-03
 Coeff-Com:  0.156D+00 0.844D+00
 Coeff-En:   0.000D+00 0.100D+01
 Coeff:      0.155D+00 0.845D+00
 Gap=     0.250 Goal=   None    Shift=    0.000
 RMSDP=1.01D-04 MaxDP=1.48D-03 DE=-6.25D-04 OVMax= 1.59D-03

 Cycle   3  Pass 0  IDiag  1:
 E= -232.248652824352     Delta-E=       -0.000033015867 Rises=F Damp=F
 DIIS: error= 2.69D-04 at cycle   3 NSaved=   3.
 NSaved= 3 IEnMin= 3 EnMin= -232.248652824352     IErMin= 3 ErrMin= 2.69D-04
 ErrMax= 2.69D-04  0.00D+00 EMaxC= 1.00D-01 BMatC= 5.34D-06 BMatP= 3.62D-05
 IDIUse=3 WtCom= 9.97D-01 WtEn= 2.69D-03
 Coeff-Com:  0.160D-01 0.265D+00 0.719D+00
 Coeff-En:   0.000D+00 0.000D+00 0.100D+01
 Coeff:      0.159D-01 0.264D+00 0.720D+00
 Gap=     0.250 Goal=   None    Shift=    0.000
 RMSDP=3.21D-05 MaxDP=4.30D-04 DE=-3.30D-05 OVMax= 6.69D-04

 Cycle   4  Pass 0  IDiag  1:
 E= -232.248657901964     Delta-E=       -0.000005077612 Rises=F Damp=F
 DIIS: error= 1.03D-04 at cycle   4 NSaved=   4.
 NSaved= 4 IEnMin= 4 EnMin= -232.248657901964     IErMin= 4 ErrMin= 1.03D-04
 ErrMax= 1.03D-04  0.00D+00 EMaxC= 1.00D-01 BMatC= 8.08D-07 BMatP= 5.34D-06
 IDIUse=3 WtCom= 9.99D-01 WtEn= 1.03D-03
 Coeff-Com: -0.316D-02 0.726D-01 0.325D+00 0.605D+00
 Coeff-En:   0.000D+00 0.000D+00 0.000D+00 0.100D+01
 Coeff:     -0.316D-02 0.725D-01 0.325D+00 0.606D+00
 Gap=     0.250 Goal=   None    Shift=    0.000
 RMSDP=1.13D-05 MaxDP=1.18D-04 DE=-5.08D-06 OVMax= 2.15D-04

 Cycle   5  Pass 0  IDiag  1:
 E= -232.248658716478     Delta-E=       -0.000000814514 Rises=F Damp=F
 DIIS: error= 1.00D-05 at cycle   5 NSaved=   5.
 NSaved= 5 IEnMin= 5 EnMin= -232.248658716478     IErMin= 5 ErrMin= 1.00D-05
 ErrMax= 1.00D-05  0.00D+00 EMaxC= 1.00D-01 BMatC= 6.44D-09 BMatP= 8.08D-07
 IDIUse=1 WtCom= 1.00D+00 WtEn= 0.00D+00
 Coeff-Com: -0.942D-03-0.122D-02 0.118D-01 0.100D+00 0.890D+00
 Coeff:     -0.942D-03-0.122D-02 0.118D-01 0.100D+00 0.890D+00
 Gap=     0.250 Goal=   None    Shift=    0.000
 RMSDP=8.52D-07 MaxDP=9.57D-06 DE=-8.15D-07 OVMax= 1.95D-05

 Initial convergence to 1.0D-05 achieved.  Increase integral accuracy.
 Cycle   6  Pass 1  IDiag  1:
 E= -232.248649259293     Delta-E=        0.000009457185 Rises=F Damp=F
 DIIS: error= 5.37D-06 at cycle   1 NSaved=   1.
 NSaved= 1 IEnMin= 1 EnMin= -232.248649259293     IErMin= 1 ErrMin= 5.37D-06
 ErrMax= 5.37D-06  0.00D+00 EMaxC= 1.00D-01 BMatC= 4.76D-10 BMatP= 4.76D-10
 IDIUse=1 WtCom= 1.00D+00 WtEn= 0.00D+00
 Coeff-Com:  0.100D+01
 Coeff:      0.100D+01
 Gap=     0.250 Goal=   None    Shift=    0.000
 RMSDP=8.52D-07 MaxDP=9.57D-06 DE= 9.46D-06 OVMax= 1.52D-05

 Cycle   7  Pass 1  IDiag  1:
 E= -232.248649260142     Delta-E=       -0.000000000849 Rises=F Damp=F
 DIIS: error= 2.54D-07 at cycle   2 NSaved=   2.
 NSaved= 2 IEnMin= 2 EnMin= -232.248649260142     IErMin= 2 ErrMin= 2.54D-07
 ErrMax= 2.54D-07  0.00D+00 EMaxC= 1.00D-01 BMatC= 4.42D-12 BMatP= 4.76D-10
 IDIUse=1 WtCom= 1.00D+00 WtEn= 0.00D+00
 Coeff-Com: -0.361D-01 0.104D+01
 Coeff:     -0.361D-01 0.104D+01
 Gap=     0.250 Goal=   None    Shift=    0.000
 RMSDP=5.06D-08 MaxDP=5.19D-07 DE=-8.49D-10 OVMax= 8.37D-07

 Cycle   8  Pass 1  IDiag  1:
 E= -232.248649260148     Delta-E=       -0.000000000006 Rises=F Damp=F
 DIIS: error= 1.30D-07 at cycle   3 NSaved=   3.
 NSaved= 3 IEnMin= 3 EnMin= -232.248649260148     IErMin= 3 ErrMin= 1.30D-07
 ErrMax= 1.30D-07  0.00D+00 EMaxC= 1.00D-01 BMatC= 1.05D-12 BMatP= 4.42D-12
 IDIUse=1 WtCom= 1.00D+00 WtEn= 0.00D+00
 Coeff-Com: -0.187D-01 0.337D+00 0.682D+00
 Coeff:     -0.187D-01 0.337D+00 0.682D+00
 Gap=     0.250 Goal=   None    Shift=    0.000
 RMSDP=1.45D-08 MaxDP=1.38D-07 DE=-6.20D-12 OVMax= 2.74D-07

 Cycle   9  Pass 1  IDiag  1:
 E= -232.248649260148     Delta-E=       -0.000000000001 Rises=F Damp=F
 DIIS: error= 3.87D-08 at cycle   4 NSaved=   4.
 NSaved= 4 IEnMin= 4 EnMin= -232.248649260148     IErMin= 4 ErrMin= 3.87D-08
 ErrMax= 3.87D-08  0.00D+00 EMaxC= 1.00D-01 BMatC= 1.21D-13 BMatP= 1.05D-12
 IDIUse=1 WtCom= 1.00D+00 WtEn= 0.00D+00
 Coeff-Com: -0.676D-02 0.987D-01 0.303D+00 0.605D+00
 Coeff:     -0.676D-02 0.987D-01 0.303D+00 0.605D+00
 Gap=     0.250 Goal=   None    Shift=    0.000
 RMSDP=4.06D-09 MaxDP=5.98D-08 DE=-5.12D-13 OVMax= 1.04D-07

 SCF Done:  E(RB3LYP) =  -232.248649260     A.U. after    9 cycles
            NFock=  9  Conv=0.41D-08     -V/T= 2.0101
 KE= 2.299232546143D+02 PE=-9.436539613755D+02 EE= 2.783227910786D+02
 Leave Link  502 at Mon May  3 11:18:20 2021, MaxMem=    33554432 cpu:         9.6
 (Enter /opt/app/gaussian09/e01/g09/l701.exe)
 Compute integral first derivatives.
 ... and contract with generalized density number  0.
 Leave Link  701 at Mon May  3 11:18:20 2021, MaxMem=    33554432 cpu:         0.1
 (Enter /opt/app/gaussian09/e01/g09/l702.exe)
 L702 exits ... SP integral derivatives will be done elsewhere.
 Leave Link  702 at Mon May  3 11:18:20 2021, MaxMem=    33554432 cpu:         0.0
 (Enter /opt/app/gaussian09/e01/g09/l703.exe)
 Compute integral first derivatives, UseDBF=F ICtDFT=           0.
 Integral derivatives from FoFJK, PRISM(SPDF).
 Calling FoFJK, ICntrl=      2127 FMM=F ISym2X=1 I1Cent= 0 IOpClX= 0 NMat=1 NMatS=1 NMatT=0.
 FoFJK:  IHMeth= 1 ICntrl=    2127 DoSepK=F KAlg= 0 I1Cent=   0 FoldK=F
 IRaf=         0 NMat=   1 IRICut=       1 DoRegI=T DoRafI=F ISym2E= 1.
 FoFCou: FMM=F IPFlag=           0 FMFlag=      100000 FMFlg1=         800
         NFxFlg=           0 DoJE=F BraDBF=F KetDBF=F FulRan=T
         wScrn=  0.000000 ICntrl=    2127 IOpCl=  0 I1Cent=           0 NGrid=           0
         NMat0=    1 NMatS0=      1 NMatT0=    0 NMatD0=    1 NMtDS0=    0 NMtDT0=    0
 Petite list used in FoFCou.
 Leave Link  703 at Mon May  3 11:18:24 2021, MaxMem=    33554432 cpu:         3.8
 (Enter /opt/app/gaussian09/e01/g09/l716.exe)
 Dipole        =-2.66453526D-15 6.21724894D-15-1.23259516D-31
 ***** Axes restored to original set *****
 -------------------------------------------------------------------
 Center     Atomic                   Forces (Hartrees/Bohr)
 Number     Number              X              Y              Z
 -------------------------------------------------------------------
      1        6          -0.000330923    0.000001299   -0.000000000
      2        6          -0.000165297   -0.000288194    0.000000000
      3        6           0.000165939   -0.000285795   -0.000000000
      4        6           0.000330923   -0.000001299    0.000000000
      5        6           0.000165297    0.000288194   -0.000000000
      6        6          -0.000165939    0.000285795    0.000000000
      7        1           0.000091918   -0.000000118    0.000000000
      8        1           0.000045893    0.000079893   -0.000000000
      9        1          -0.000046357    0.000079948   -0.000000000
     10        1          -0.000091918    0.000000118   -0.000000000
     11        1          -0.000045893   -0.000079893    0.000000000
     12        1           0.000046357   -0.000079948    0.000000000
 -------------------------------------------------------------------
 Cartesian Forces:  Max     0.000330923 RMS     0.000140354
 Leave Link  716 at Mon May  3 11:18:24 2021, MaxMem=    33554432 cpu:         0.0
 (Enter /opt/app/gaussian09/e01/g09/l103.exe)

 GradGradGradGradGradGradGradGradGradGradGradGradGradGradGradGradGradGrad
 Berny optimization.
 Using GEDIIS/GDIIS optimizer.
 FormGI is forming the generalized inverse of G from B-inverse, IUseBI=4.
 Internal  Forces:  Max     0.000239639 RMS     0.000085401
 Search for a local minimum.
 Step number   2 out of a maximum of   64
 All quantities printed in internal units (Hartrees-Bohrs-Radians)
 RMS Force = .85401D-04 SwitMx=.10000D-02 MixMth= 2
 Mixed Optimization -- En-DIIS/RFO-DIIS
 Update second derivatives using D2CorX and points    1    2
 DE= -3.02D-03 DEPred=-3.12D-03 R= 9.66D-01
 TightC=F SS=  1.41D+00  RLast= 1.25D-01 DXNew= 5.0454D-01 3.7567D-01
 Trust test= 9.66D-01 RLast= 1.25D-01 DXMaxT set to 3.76D-01
 ITU=  1  0
 Use linear search instead of GDIIS.
     Eigenvalues ---    0.02089   0.02089   0.02089   0.02089   0.02089
     Eigenvalues ---    0.02089   0.02089   0.02089   0.02089   0.16000
     Eigenvalues ---    0.16000   0.16000   0.16000   0.16000   0.16000
     Eigenvalues ---    0.22000   0.22000   0.22000   0.38523   0.38523
     Eigenvalues ---    0.38523   0.38524   0.38524   0.38979   0.41436
     Eigenvalues ---    0.41437   0.45533   0.45620   0.45621   0.45621
 RFO step:  Lambda=-6.70800156D-07 EMin= 2.08872691D-02
 Quartic linear search produced a step of  0.00647.
 Iteration  1 RMS(Cart)=  0.00019732 RMS(Int)=  0.00000000
 Iteration  2 RMS(Cart)=  0.00000000 RMS(Int)=  0.00000000
 ITry= 1 IFail=0 DXMaxC= 5.30D-04 DCOld= 1.00D+10 DXMaxT= 3.76D-01 DXLimC= 3.00D+00 Rises=F
 ClnCor:  largest displacement from symmetrization is 9.10D-14 for atom     4.
 Variable       Old X    -DE/DX   Delta X   Delta X   Delta X     New X
                                 (Linear)    (Quad)   (Total)
    R1        2.63970  -0.00024  -0.00004  -0.00049  -0.00053   2.63917
    R2        2.63970  -0.00024  -0.00004  -0.00049  -0.00053   2.63917
    R3        2.05389   0.00009   0.00033  -0.00006   0.00027   2.05415
    R4        2.63970  -0.00024  -0.00004  -0.00049  -0.00053   2.63917
    R5        2.05389   0.00009   0.00033  -0.00006   0.00027   2.05415
    R6        2.63970  -0.00024  -0.00004  -0.00049  -0.00053   2.63917
    R7        2.05389   0.00009   0.00033  -0.00006   0.00027   2.05415
    R8        2.63970  -0.00024  -0.00004  -0.00049  -0.00053   2.63917
    R9        2.05389   0.00009   0.00033  -0.00006   0.00027   2.05415
   R10        2.63970  -0.00024  -0.00004  -0.00049  -0.00053   2.63917
   R11        2.05389   0.00009   0.00033  -0.00006   0.00027   2.05415
   R12        2.05389   0.00009   0.00033  -0.00006   0.00027   2.05415
    A1        2.09440  -0.00000   0.00000  -0.00000  -0.00000   2.09439
    A2        2.09440   0.00000   0.00000   0.00000   0.00000   2.09440
    A3        2.09439  -0.00000  -0.00000  -0.00000  -0.00000   2.09439
    A4        2.09439   0.00000   0.00000   0.00000   0.00000   2.09439
    A5        2.09440  -0.00000   0.00000   0.00000   0.00000   2.09440
    A6        2.09440  -0.00000  -0.00000  -0.00000  -0.00000   2.09439
    A7        2.09440  -0.00000  -0.00000  -0.00000  -0.00000   2.09440
    A8        2.09439   0.00000   0.00000   0.00000   0.00000   2.09439
    A9        2.09439   0.00000   0.00000  -0.00000  -0.00000   2.09439
   A10        2.09440  -0.00000   0.00000  -0.00000  -0.00000   2.09439
   A11        2.09439  -0.00000  -0.00000  -0.00000  -0.00000   2.09439
   A12        2.09440   0.00000   0.00000   0.00000   0.00000   2.09440
   A13        2.09439   0.00000   0.00000   0.00000   0.00000   2.09439
   A14        2.09440  -0.00000   0.00000   0.00000   0.00000   2.09440
   A15        2.09440  -0.00000  -0.00000  -0.00000  -0.00000   2.09439
   A16        2.09440  -0.00000  -0.00000  -0.00000  -0.00000   2.09440
   A17        2.09439   0.00000   0.00000  -0.00000  -0.00000   2.09439
   A18        2.09439   0.00000   0.00000   0.00000   0.00000   2.09439
    D1        0.00000  -0.00000   0.00000  -0.00000   0.00000   0.00000
    D2        3.14159  -0.00000   0.00000  -0.00000   0.00000   3.14159
    D3        3.14159   0.00000   0.00000   0.00000   0.00000   3.14159
    D4       -0.00000   0.00000   0.00000   0.00000   0.00000   0.00000
    D5       -0.00000   0.00000   0.00000   0.00000   0.00000   0.00000
    D6        3.14159   0.00000   0.00000   0.00000   0.00000   3.14159
    D7        3.14159  -0.00000   0.00000  -0.00000   0.00000   3.14159
    D8        0.00000  -0.00000   0.00000  -0.00000   0.00000   0.00000
    D9       -0.00000   0.00000   0.00000   0.00000   0.00000   0.00000
   D10        3.14159   0.00000   0.00000   0.00000   0.00000   3.14159
   D11        3.14159   0.00000   0.00000   0.00000   0.00000   3.14159
   D12        0.00000  -0.00000   0.00000  -0.00000   0.00000   0.00000
   D13        0.00000  -0.00000   0.00000  -0.00000   0.00000   0.00000
   D14        3.14159   0.00000   0.00000   0.00000   0.00000   3.14159
   D15        3.14159  -0.00000   0.00000  -0.00000   0.00000   3.14159
   D16       -0.00000   0.00000   0.00000   0.00000   0.00000   0.00000
   D17       -0.00000   0.00000   0.00000   0.00000   0.00000   0.00000
   D18        3.14159  -0.00000   0.00000  -0.00000   0.00000   3.14159
   D19        3.14159  -0.00000   0.00000  -0.00000   0.00000   3.14159
   D20        0.00000  -0.00000   0.00000  -0.00000   0.00000   0.00000
   D21        0.00000  -0.00000   0.00000  -0.00000   0.00000   0.00000
   D22        3.14159  -0.00000   0.00000  -0.00000   0.00000   3.14159
   D23        3.14159   0.00000   0.00000   0.00000   0.00000   3.14159
   D24       -0.00000   0.00000   0.00000   0.00000   0.00000   0.00000
         Item               Value     Threshold  Converged?
 Maximum Force            0.000240     0.000015     NO 
 RMS     Force            0.000085     0.000010     NO 
 Maximum Displacement     0.000530     0.000060     NO 
 RMS     Displacement     0.000197     0.000040     NO 
 Predicted change in Energy=-4.442167D-07
 Lowest energy point so far.  Saving SCF results.
 GradGradGradGradGradGradGradGradGradGradGradGradGradGradGradGradGradGrad

 Leave Link  103 at Mon May  3 11:18:24 2021, MaxMem=    33554432 cpu:         0.0
 (Enter /opt/app/gaussian09/e01/g09/l202.exe)
                          Input orientation:                          
 ---------------------------------------------------------------------
 Center     Atomic      Atomic             Coordinates (Angstroms)
 Number     Number       Type             X           Y           Z
 ---------------------------------------------------------------------
      1          6           0        5.856590    4.130420    2.000000
      2          6           0        5.158295    5.339903    2.000000
      3          6           0        3.761705    5.339902    2.000000
      4          6           0        3.063410    4.130420    2.000000
      5          6           0        3.761705    2.920937    2.000000
      6          6           0        5.158295    2.920938    2.000000
      7          1           0        6.943601    4.130419    2.000000
      8          1           0        5.701799    6.281283    2.000000
      9          1           0        3.218199    6.281281    2.000000
     10          1           0        1.976399    4.130421    2.000000
     11          1           0        3.218201    1.979557    2.000000
     12          1           0        5.701801    1.979559    2.000000
 ---------------------------------------------------------------------
                    Distance matrix (angstroms):
                    1          2          3          4          5
     1  C    0.000000
     2  C    1.396591   0.000000
     3  C    2.418965   1.396590   0.000000
     4  C    2.793181   2.418966   1.396590   0.000000
     5  C    2.418966   2.793181   2.418965   1.396591   0.000000
     6  C    1.396590   2.418965   2.793179   2.418965   1.396590
     7  H    1.087011   2.156425   3.404014   3.880192   3.404014
     8  H    2.156425   1.087011   2.156424   3.404014   3.880192
     9  H    3.404014   2.156424   1.087011   2.156424   3.404014
    10  H    3.880192   3.404014   2.156424   1.087011   2.156425
    11  H    3.404014   3.880192   3.404014   2.156425   1.087011
    12  H    2.156424   3.404014   3.880190   3.404014   2.156424
                    6          7          8          9         10
     6  C    0.000000
     7  H    2.156424   0.000000
     8  H    3.404014   2.483604   0.000000
     9  H    3.880190   4.301724   2.483600   0.000000
    10  H    3.404014   4.967203   4.301722   2.483600   0.000000
    11  H    2.156424   4.301722   4.967203   4.301724   2.483604
    12  H    1.087011   2.483600   4.301724   4.967201   4.301724
                   11         12
    11  H    0.000000
    12  H    2.483600   0.000000
 Stoichiometry    C6H6
 Framework group  C2H[SGH(C6H6)]
 Deg. of freedom    11
 Full point group                 C2H     NOp   4
 RotChk:  IX=2 Diff= 6.61D-07
 Largest Abelian subgroup         C2H     NOp   4
 Largest concise Abelian subgroup C2      NOp   2
                         Standard orientation:                         
 ---------------------------------------------------------------------
 Center     Atomic      Atomic             Coordinates (Angstroms)
 Number     Number       Type             X           Y           Z
 ---------------------------------------------------------------------
      1          6           0        0.698295    1.209483    0.000000
      2          6           0       -0.698295    1.209483   -0.000000
      3          6           0       -1.396590   -0.000000   -0.000000
      4          6           0       -0.698295   -1.209483    0.000000
      5          6           0        0.698295   -1.209483    0.000000
      6          6           0        1.396590    0.000000   -0.000000
      7          1           0        1.241802    2.150861    0.000000
      8          1           0       -1.241802    2.150861   -0.000000
      9          1           0       -2.483601    0.000000   -0.000000
     10          1           0       -1.241802   -2.150861    0.000000
     11          1           0        1.241802   -2.150861    0.000000
     12          1           0        2.483601   -0.000000   -0.000000
 ---------------------------------------------------------------------
 Rotational constants (GHZ):      5.6869583      5.6869560      2.8434786
 Leave Link  202 at Mon May  3 11:18:24 2021, MaxMem=    33554432 cpu:         0.0
 (Enter /opt/app/gaussian09/e01/g09/l301.exe)
 Standard basis: 6-31G(d) (6D, 7F)
 Ernie: Thresh=  0.10000D-02 Tol=  0.10000D-05 Strict=F.
 There are    39 symmetry adapted cartesian basis functions of AG  symmetry.
 There are    12 symmetry adapted cartesian basis functions of BG  symmetry.
 There are    12 symmetry adapted cartesian basis functions of AU  symmetry.
 There are    39 symmetry adapted cartesian basis functions of BU  symmetry.
 There are    39 symmetry adapted basis functions of AG  symmetry.
 There are    12 symmetry adapted basis functions of BG  symmetry.
 There are    12 symmetry adapted basis functions of AU  symmetry.
 There are    39 symmetry adapted basis functions of BU  symmetry.
   102 basis functions,   192 primitive gaussians,   102 cartesian basis functions
    21 alpha electrons       21 beta electrons
       nuclear repulsion energy       203.1899393152 Hartrees.
 IExCor=  402 DFT=T Ex+Corr=B3LYP ExCW=0 ScaHFX=  0.200000
 ScaDFX=  0.800000  0.720000  1.000000  0.810000 ScalE2=  1.000000  1.000000
 IRadAn=      5 IRanWt=     -1 IRanGd=            0 ICorTp=0 IEmpDi=  4
 NAtoms=   12 NActive=   12 NUniq=    6 SFac= 4.00D+00 NAtFMM=   60 NAOKFM=F Big=F
 Integral buffers will be    131072 words long.
 Raffenetti 2 integral format.
 Two-electron integral symmetry is turned on.
 Leave Link  301 at Mon May  3 11:18:24 2021, MaxMem=    33554432 cpu:         0.0
 (Enter /opt/app/gaussian09/e01/g09/l302.exe)
 NPDir=0 NMtPBC=     1 NCelOv=     1 NCel=       1 NClECP=     1 NCelD=      1
         NCelK=      1 NCelE2=     1 NClLst=     1 CellRange=     0.0.
 One-electron integrals computed using PRISM.
 One-electron integral symmetry used in STVInt
 NBasis=   102 RedAO= T EigKep=  5.21D-04  NBF=    39    12    12    39
 NBsUse=   102 1.00D-06 EigRej= -1.00D+00 NBFU=    39    12    12    39
 Precomputing XC quadrature grid using
 IXCGrd= 4 IRadAn=           5 IRanWt=          -1 IRanGd=           0 AccXCQ= 0.00D+00.
 Generated NRdTot=       0 NPtTot=           0 NUsed=           0 NTot=          32
 NSgBfM=   102   102   102   102   102 MxSgAt=    12 MxSgA2=    12.
 Leave Link  302 at Mon May  3 11:18:24 2021, MaxMem=    33554432 cpu:         0.3
 (Enter /opt/app/gaussian09/e01/g09/l303.exe)
 DipDrv:  MaxL=1.
 Leave Link  303 at Mon May  3 11:18:24 2021, MaxMem=    33554432 cpu:         0.0
 (Enter /opt/app/gaussian09/e01/g09/l401.exe)
 Initial guess from the checkpoint file:  "benzene.chk"
 B after Tr=     0.000000   -0.000000   -0.000000
         Rot=    1.000000    0.000000    0.000000   -0.000000 Ang=  -0.00 deg.
 Guess basis will be translated and rotated to current coordinates.
 JPrj=2 DoOrth=T DoCkMO=T.
 Initial guess orbital symmetries:
       Occupied  (AG) (BU) (BU) (AG) (AG) (BU) (AG) (BU) (BU) (AG)
                 (AG) (AG) (BU) (BU) (BU) (BU) (AU) (AG) (AG) (BG)
                 (BG)
       Virtual   (AG) (AG) (AG) (AG) (AG) (AG) (AG) (AG) (AG) (AG)
                 (AG) (AG) (AG) (AG) (AG) (AG) (AG) (AG) (AG) (AG)
                 (AG) (AG) (AG) (AG) (AG) (AG) (AG) (AG) (AG) (AG)
                 (BG) (BG) (BG) (BG) (BG) (BG) (BG) (BG) (BG) (BG)
                 (AU) (AU) (AU) (AU) (AU) (AU) (AU) (AU) (AU) (AU)
                 (AU) (BU) (BU) (BU) (BU) (BU) (BU) (BU) (BU) (BU)
                 (BU) (BU) (BU) (BU) (BU) (BU) (BU) (BU) (BU) (BU)
                 (BU) (BU) (BU) (BU) (BU) (BU) (BU) (BU) (BU) (BU)
                 (BU)
 The electronic state of the initial guess is 1-AG.
 Leave Link  401 at Mon May  3 11:18:24 2021, MaxMem=    33554432 cpu:         0.1
 (Enter /opt/app/gaussian09/e01/g09/l502.exe)
 Closed shell SCF:
 Using DIIS extrapolation, IDIIS=  1040.
 Integral symmetry usage will be decided dynamically.
 Keep R1 ints in memory in symmetry-blocked form, NReq=17600710.
 IVT=       51370 IEndB=       51370 NGot=    33554432 MDV=    29753456
 LenX=    29753456 LenY=    29742611
 Requested convergence on RMS density matrix=1.00D-08 within 128 cycles.
 Requested convergence on MAX density matrix=1.00D-06.
 Requested convergence on             energy=1.00D-06.
 No special actions if energy rises.
 FoFCou: FMM=F IPFlag=           0 FMFlag=           0 FMFlg1=           0
         NFxFlg=           0 DoJE=F BraDBF=F KetDBF=F FulRan=T
         wScrn=  0.000000 ICntrl=     600 IOpCl=  0 I1Cent=           0 NGrid=           0
         NMat0=    1 NMatS0=   5253 NMatT0=    0 NMatD0=    1 NMtDS0=    0 NMtDT0=    0
 Petite list used in FoFCou.

 Cycle   1  Pass 1  IDiag  1:
 E= -232.248649534869    
 DIIS: error= 3.33D-05 at cycle   1 NSaved=   1.
 NSaved= 1 IEnMin= 1 EnMin= -232.248649534869     IErMin= 1 ErrMin= 3.33D-05
 ErrMax= 3.33D-05  0.00D+00 EMaxC= 1.00D-01 BMatC= 9.32D-08 BMatP= 9.32D-08
 IDIUse=1 WtCom= 1.00D+00 WtEn= 0.00D+00
 Coeff-Com:  0.100D+01
 Coeff:      0.100D+01
 Gap=     0.851 Goal=   None    Shift=    0.000
 RMSDP=5.11D-06 MaxDP=5.27D-05              OVMax= 8.67D-05

 Cycle   2  Pass 1  IDiag  1:
 E= -232.248649651209     Delta-E=       -0.000000116340 Rises=F Damp=F
 DIIS: error= 1.44D-05 at cycle   2 NSaved=   2.
 NSaved= 2 IEnMin= 2 EnMin= -232.248649651209     IErMin= 2 ErrMin= 1.44D-05
 ErrMax= 1.44D-05  0.00D+00 EMaxC= 1.00D-01 BMatC= 1.57D-08 BMatP= 9.32D-08
 IDIUse=1 WtCom= 1.00D+00 WtEn= 0.00D+00
 Coeff-Com:  0.227D+00 0.773D+00
 Coeff:      0.227D+00 0.773D+00
 Gap=     0.250 Goal=   None    Shift=    0.000
 RMSDP=1.94D-06 MaxDP=2.20D-05 DE=-1.16D-07 OVMax= 4.10D-05

 Cycle   3  Pass 1  IDiag  1:
 E= -232.248649660796     Delta-E=       -0.000000009587 Rises=F Damp=F
 DIIS: error= 7.23D-06 at cycle   3 NSaved=   3.
 NSaved= 3 IEnMin= 3 EnMin= -232.248649660796     IErMin= 3 ErrMin= 7.23D-06
 ErrMax= 7.23D-06  0.00D+00 EMaxC= 1.00D-01 BMatC= 4.94D-09 BMatP= 1.57D-08
 IDIUse=1 WtCom= 1.00D+00 WtEn= 0.00D+00
 Coeff-Com: -0.470D-02 0.355D+00 0.650D+00
 Coeff:     -0.470D-02 0.355D+00 0.650D+00
 Gap=     0.250 Goal=   None    Shift=    0.000
 RMSDP=9.07D-07 MaxDP=1.11D-05 DE=-9.59D-09 OVMax= 1.78D-05

 Cycle   4  Pass 1  IDiag  1:
 E= -232.248649666051     Delta-E=       -0.000000005255 Rises=F Damp=F
 DIIS: error= 6.02D-07 at cycle   4 NSaved=   4.
 NSaved= 4 IEnMin= 4 EnMin= -232.248649666051     IErMin= 4 ErrMin= 6.02D-07
 ErrMax= 6.02D-07  0.00D+00 EMaxC= 1.00D-01 BMatC= 2.42D-11 BMatP= 4.94D-09
 IDIUse=1 WtCom= 1.00D+00 WtEn= 0.00D+00
 Coeff-Com: -0.275D-02 0.291D-01 0.109D+00 0.864D+00
 Coeff:     -0.275D-02 0.291D-01 0.109D+00 0.864D+00
 Gap=     0.250 Goal=   None    Shift=    0.000
 RMSDP=6.41D-08 MaxDP=8.73D-07 DE=-5.25D-09 OVMax= 1.28D-06

 Cycle   5  Pass 1  IDiag  1:
 E= -232.248649666079     Delta-E=       -0.000000000029 Rises=F Damp=F
 DIIS: error= 6.84D-08 at cycle   5 NSaved=   5.
 NSaved= 5 IEnMin= 5 EnMin= -232.248649666079     IErMin= 5 ErrMin= 6.84D-08
 ErrMax= 6.84D-08  0.00D+00 EMaxC= 1.00D-01 BMatC= 4.83D-13 BMatP= 2.42D-11
 IDIUse=1 WtCom= 1.00D+00 WtEn= 0.00D+00
 Coeff-Com: -0.633D-03-0.988D-03 0.138D-01 0.223D+00 0.765D+00
 Coeff:     -0.633D-03-0.988D-03 0.138D-01 0.223D+00 0.765D+00
 Gap=     0.250 Goal=   None    Shift=    0.000
 RMSDP=7.97D-09 MaxDP=7.35D-08 DE=-2.86D-11 OVMax= 1.30D-07

 SCF Done:  E(RB3LYP) =  -232.248649666     A.U. after    5 cycles
            NFock=  5  Conv=0.80D-08     -V/T= 2.0101
 KE= 2.299262954964D+02 PE=-9.437177709122D+02 EE= 2.783528864345D+02
 Leave Link  502 at Mon May  3 11:18:33 2021, MaxMem=    33554432 cpu:         8.2
 (Enter /opt/app/gaussian09/e01/g09/l701.exe)
 Compute integral first derivatives.
 ... and contract with generalized density number  0.
 Leave Link  701 at Mon May  3 11:18:33 2021, MaxMem=    33554432 cpu:         0.1
 (Enter /opt/app/gaussian09/e01/g09/l702.exe)
 L702 exits ... SP integral derivatives will be done elsewhere.
 Leave Link  702 at Mon May  3 11:18:33 2021, MaxMem=    33554432 cpu:         0.0
 (Enter /opt/app/gaussian09/e01/g09/l703.exe)
 Compute integral first derivatives, UseDBF=F ICtDFT=           0.
 Integral derivatives from FoFJK, PRISM(SPDF).
 Calling FoFJK, ICntrl=      2127 FMM=F ISym2X=1 I1Cent= 0 IOpClX= 0 NMat=1 NMatS=1 NMatT=0.
 FoFJK:  IHMeth= 1 ICntrl=    2127 DoSepK=F KAlg= 0 I1Cent=   0 FoldK=F
 IRaf=         0 NMat=   1 IRICut=       1 DoRegI=T DoRafI=F ISym2E= 1.
 FoFCou: FMM=F IPFlag=           0 FMFlag=      100000 FMFlg1=         800
         NFxFlg=           0 DoJE=F BraDBF=F KetDBF=F FulRan=T
         wScrn=  0.000000 ICntrl=    2127 IOpCl=  0 I1Cent=           0 NGrid=           0
         NMat0=    1 NMatS0=      1 NMatT0=    0 NMatD0=    1 NMtDS0=    0 NMtDT0=    0
 Petite list used in FoFCou.
 Leave Link  703 at Mon May  3 11:18:37 2021, MaxMem=    33554432 cpu:         3.8
[...]
    D1       -0.00000   0.00000   0.00000   0.00000   0.00000   0.00000
    D2        3.14159   0.00000   0.00000   0.00000   0.00000   3.14159
    D3        3.14159  -0.00000   0.00000  -0.00000   0.00000   3.14159
    D4        0.00000   0.00000   0.00000   0.00000   0.00000   0.00000
    D5        0.00000   0.00000   0.00000   0.00000   0.00000   0.00000
    D6        3.14159   0.00000   0.00000   0.00000   0.00000   3.14159
    D7        3.14159   0.00000   0.00000   0.00000   0.00000   3.14159
    D8       -0.00000   0.00000   0.00000   0.00000   0.00000   0.00000
    D9        0.00000  -0.00000   0.00000  -0.00000   0.00000   0.00000
   D10        3.14159   0.00000   0.00000   0.00000   0.00000   3.14159
   D11        3.14159  -0.00000   0.00000  -0.00000   0.00000   3.14159
   D12        0.00000  -0.00000   0.00000  -0.00000   0.00000   0.00000
   D13       -0.00000   0.00000   0.00000   0.00000   0.00000   0.00000
   D14        3.14159  -0.00000   0.00000  -0.00000   0.00000   3.14159
   D15        3.14159  -0.00000   0.00000  -0.00000   0.00000   3.14159
   D16        0.00000  -0.00000   0.00000  -0.00000   0.00000   0.00000
   D17        0.00000   0.00000   0.00000   0.00000   0.00000   0.00000
   D18        3.14159  -0.00000   0.00000  -0.00000   0.00000   3.14159
   D19        3.14159   0.00000   0.00000   0.00000   0.00000   3.14159
   D20        0.00000  -0.00000   0.00000  -0.00000   0.00000   0.00000
   D21       -0.00000  -0.00000   0.00000  -0.00000   0.00000   0.00000
   D22        3.14159  -0.00000   0.00000  -0.00000   0.00000   3.14159
   D23        3.14159   0.00000   0.00000   0.00000   0.00000   3.14159
   D24       -0.00000   0.00000   0.00000   0.00000   0.00000   0.00000
         Item               Value     Threshold  Converged?
 Maximum Force            0.000000     0.000015     YES
 RMS     Force            0.000000     0.000010     YES
 Maximum Displacement     0.000001     0.000060     YES
 RMS     Displacement     0.000000     0.000040     YES
 Predicted change in Energy=-8.913134D-13
 Optimization completed.
    -- Stationary point found.
                           ----------------------------
                           !   Optimized Parameters   !
                           ! (Angstroms and Degrees)  !
 --------------------------                            --------------------------
 ! Name  Definition              Value          Derivative Info.                !
 --------------------------------------------------------------------------------
 ! R1    R(1,2)                  1.3966         -DE/DX =    0.0                 !
 ! R2    R(1,6)                  1.3966         -DE/DX =    0.0                 !
 ! R3    R(1,7)                  1.087          -DE/DX =    0.0                 !
 ! R4    R(2,3)                  1.3966         -DE/DX =    0.0                 !
 ! R5    R(2,8)                  1.087          -DE/DX =    0.0                 !
 ! R6    R(3,4)                  1.3966         -DE/DX =    0.0                 !
 ! R7    R(3,9)                  1.087          -DE/DX =    0.0                 !
 ! R8    R(4,5)                  1.3966         -DE/DX =    0.0                 !
 ! R9    R(4,10)                 1.087          -DE/DX =    0.0                 !
 ! R10   R(5,6)                  1.3966         -DE/DX =    0.0                 !
 ! R11   R(5,11)                 1.087          -DE/DX =    0.0                 !
 ! R12   R(6,12)                 1.087          -DE/DX =    0.0                 !
 ! A1    A(2,1,6)              120.0            -DE/DX =    0.0                 !
 ! A2    A(2,1,7)              120.0001         -DE/DX =    0.0                 !
 ! A3    A(6,1,7)              120.0            -DE/DX =    0.0                 !
 ! A4    A(1,2,3)              120.0            -DE/DX =    0.0                 !
 ! A5    A(1,2,8)              120.0001         -DE/DX =    0.0                 !
 ! A6    A(3,2,8)              120.0            -DE/DX =    0.0                 !
 ! A7    A(2,3,4)              120.0001         -DE/DX =    0.0                 !
 ! A8    A(2,3,9)              120.0            -DE/DX =    0.0                 !
 ! A9    A(4,3,9)              120.0            -DE/DX =    0.0                 !
 ! A10   A(3,4,5)              120.0            -DE/DX =    0.0                 !
 ! A11   A(3,4,10)             120.0            -DE/DX =    0.0                 !
 ! A12   A(5,4,10)             120.0001         -DE/DX =    0.0                 !
 ! A13   A(4,5,6)              120.0            -DE/DX =    0.0                 !
 ! A14   A(4,5,11)             120.0001         -DE/DX =    0.0                 !
 ! A15   A(6,5,11)             120.0            -DE/DX =    0.0                 !
 ! A16   A(1,6,5)              120.0001         -DE/DX =    0.0                 !
 ! A17   A(1,6,12)             120.0            -DE/DX =    0.0                 !
 ! A18   A(5,6,12)             120.0            -DE/DX =    0.0                 !
 ! D1    D(6,1,2,3)              0.0            -DE/DX =    0.0                 !
 ! D2    D(6,1,2,8)            180.0            -DE/DX =    0.0                 !
 ! D3    D(7,1,2,3)            180.0            -DE/DX =    0.0                 !
 ! D4    D(7,1,2,8)              0.0            -DE/DX =    0.0                 !
 ! D5    D(2,1,6,5)              0.0            -DE/DX =    0.0                 !
 ! D6    D(2,1,6,12)           180.0            -DE/DX =    0.0                 !
 ! D7    D(7,1,6,5)            180.0            -DE/DX =    0.0                 !
 ! D8    D(7,1,6,12)             0.0            -DE/DX =    0.0                 !
 ! D9    D(1,2,3,4)              0.0            -DE/DX =    0.0                 !
 ! D10   D(1,2,3,9)            180.0            -DE/DX =    0.0                 !
 ! D11   D(8,2,3,4)            180.0            -DE/DX =    0.0                 !
 ! D12   D(8,2,3,9)              0.0            -DE/DX =    0.0                 !
 ! D13   D(2,3,4,5)              0.0            -DE/DX =    0.0                 !
 ! D14   D(2,3,4,10)           180.0            -DE/DX =    0.0                 !
 ! D15   D(9,3,4,5)            180.0            -DE/DX =    0.0                 !
 ! D16   D(9,3,4,10)             0.0            -DE/DX =    0.0                 !
 ! D17   D(3,4,5,6)              0.0            -DE/DX =    0.0                 !
 ! D18   D(3,4,5,11)           180.0            -DE/DX =    0.0                 !
 ! D19   D(10,4,5,6)           180.0            -DE/DX =    0.0                 !
 ! D20   D(10,4,5,11)            0.0            -DE/DX =    0.0                 !
 ! D21   D(4,5,6,1)              0.0            -DE/DX =    0.0                 !
 ! D22   D(4,5,6,12)           180.0            -DE/DX =    0.0                 !
 ! D23   D(11,5,6,1)           180.0            -DE/DX =    0.0                 !
 ! D24   D(11,5,6,12)            0.0            -DE/DX =    0.0                 !
 --------------------------------------------------------------------------------
 Lowest energy point so far.  Saving SCF results.
 GradGradGradGradGradGradGradGradGradGradGradGradGradGradGradGradGradGrad

 Largest change from initial coordinates is atom   11       0.024 Angstoms.
 Leave Link  103 at Mon May  3 11:18:48 2021, MaxMem=    33554432 cpu:         0.0
 (Enter /opt/app/gaussian09/e01/g09/l202.exe)
                          Input orientation:                          
 ---------------------------------------------------------------------
 Center     Atomic      Atomic             Coordinates (Angstroms)
 Number     Number       Type             X           Y           Z
 ---------------------------------------------------------------------
      1          6           0        5.856622    4.130420    2.000000
      2          6           0        5.158311    5.339930    2.000000
      3          6           0        3.761689    5.339929    2.000000
      4          6           0        3.063378    4.130420    2.000000
      5          6           0        3.761689    2.920910    2.000000
      6          6           0        5.158311    2.920911    2.000000
      7          1           0        6.943634    4.130419    2.000000
      8          1           0        5.701815    6.281311    2.000000
      9          1           0        3.218183    6.281309    2.000000
     10          1           0        1.976366    4.130421    2.000000
     11          1           0        3.218185    1.979529    2.000000
     12          1           0        5.701817    1.979531    2.000000
 ---------------------------------------------------------------------
                    Distance matrix (angstroms):
                    1          2          3          4          5
     1  C    0.000000
     2  C    1.396622   0.000000
     3  C    2.419020   1.396622   0.000000
     4  C    2.793244   2.419020   1.396622   0.000000
     5  C    2.419020   2.793244   2.419020   1.396622   0.000000
     6  C    1.396622   2.419020   2.793243   2.419020   1.396622
     7  H    1.087012   2.156455   3.404069   3.880256   3.404069
     8  H    2.156455   1.087012   2.156453   3.404069   3.880256
     9  H    3.404069   2.156453   1.087012   2.156453   3.404069
    10  H    3.880256   3.404069   2.156453   1.087012   2.156455
    11  H    3.404069   3.880256   3.404069   2.156455   1.087012
    12  H    2.156453   3.404069   3.880255   3.404069   2.156453
                    6          7          8          9         10
     6  C    0.000000
     7  H    2.156453   0.000000
     8  H    3.404069   2.483636   0.000000
     9  H    3.880255   4.301780   2.483633   0.000000
    10  H    3.404069   4.967268   4.301779   2.483633   0.000000
    11  H    2.156453   4.301779   4.967268   4.301780   2.483636
    12  H    1.087012   2.483633   4.301780   4.967267   4.301780
                   11         12
    11  H    0.000000
    12  H    2.483633   0.000000
 Stoichiometry    C6H6
 Framework group  C2H[SGH(C6H6)]
 Deg. of freedom    11
 Full point group                 C2H     NOp   4
 RotChk:  IX=1 Diff= 7.85D-17
 Largest Abelian subgroup         C2H     NOp   4
 Largest concise Abelian subgroup C2      NOp   2
                         Standard orientation:                         
 ---------------------------------------------------------------------
 Center     Atomic      Atomic             Coordinates (Angstroms)
 Number     Number       Type             X           Y           Z
 ---------------------------------------------------------------------
      1          6           0        1.209510   -0.698311   -0.000000
      2          6           0        1.209510    0.698311   -0.000000
      3          6           0       -0.000000    1.396621    0.000000
      4          6           0       -1.209510    0.698311   -0.000000
      5          6           0       -1.209510   -0.698311   -0.000000
      6          6           0        0.000000   -1.396621   -0.000000
      7          1           0        2.150890   -1.241818   -0.000000
      8          1           0        2.150889    1.241818   -0.000000
      9          1           0       -0.000000    2.483633    0.000000
     10          1           0       -2.150890    1.241818   -0.000000
     11          1           0       -2.150889   -1.241818   -0.000000
     12          1           0        0.000000   -2.483633   -0.000000
 ---------------------------------------------------------------------
 Rotational constants (GHZ):      5.6867231      5.6867210      2.8433610
 Leave Link  202 at Mon May  3 11:18:48 2021, MaxMem=    33554432 cpu:         0.0
 (Enter /opt/app/gaussian09/e01/g09/l601.exe)
 Copying SCF densities to generalized density rwf, IOpCl= 0 IROHF=0.

 **********************************************************************

            Population analysis using the SCF density.

 **********************************************************************

 Orbital symmetries:
       Occupied  (AG) (BU) (BU) (AG) (AG) (BU) (AG) (BU) (BU) (AG)
                 (AG) (AG) (BU) (BU) (BU) (BU) (AU) (AG) (AG) (BG)
                 (BG)
       Virtual   (AU) (AU) (AG) (BU) (BU) (BG) (AG) (AG) (BU) (AG)
                 (AG) (BU) (BU) (BU) (AU) (BU) (AG) (AG) (AG) (BG)
                 (BG) (AG) (AG) (BU) (BU) (AU) (AU) (BG) (AG) (AG)
                 (BU) (BU) (BU) (BU) (BU) (AG) (AG) (AG) (AG) (BU)
                 (BU) (BU) (BG) (AU) (AG) (AG) (AU) (AU) (BG) (BG)
                 (AG) (BU) (AG) (BU) (BU) (BU) (AG) (AG) (AU) (AU)
                 (BU) (BU) (BG) (BG) (BG) (AG) (AG) (AU) (AG) (AG)
                 (BU) (BU) (BU) (AG) (BU) (AG) (BU) (BU) (AG) (AG)
                 (BU)
 The electronic state is 1-AG.
 Alpha  occ. eigenvalues --  -10.18774 -10.18748 -10.18748 -10.18692 -10.18692
 Alpha  occ. eigenvalues --  -10.18666  -0.84632  -0.73983  -0.73983  -0.59749
 Alpha  occ. eigenvalues --   -0.59749  -0.51855  -0.45929  -0.43810  -0.41726
 Alpha  occ. eigenvalues --   -0.41726  -0.35940  -0.34027  -0.34027  -0.24629
 Alpha  occ. eigenvalues --   -0.24629
 Alpha virt. eigenvalues --    0.00362   0.00362   0.09074   0.14469   0.14469
 Alpha virt. eigenvalues --    0.16394   0.18185   0.18185   0.19026   0.30266
 Alpha virt. eigenvalues --    0.30266   0.31914   0.31914   0.47488   0.52736
 Alpha virt. eigenvalues --    0.54904   0.55030   0.56397   0.59251   0.60201
 Alpha virt. eigenvalues --    0.60201   0.60206   0.60206   0.62679   0.62679
 Alpha virt. eigenvalues --    0.66754   0.66754   0.74487   0.84000   0.84000
 Alpha virt. eigenvalues --    0.84110   0.86501   0.86501   0.93904   0.93904
 Alpha virt. eigenvalues --    0.94063   0.95798   1.08261   1.08261   1.14238
 Alpha virt. eigenvalues --    1.14239   1.20100   1.26189   1.39628   1.43638
 Alpha virt. eigenvalues --    1.43638   1.48697   1.48697   1.51542   1.51542
 Alpha virt. eigenvalues --    1.75689   1.78987   1.85728   1.89560   1.97353
 Alpha virt. eigenvalues --    1.97353   2.06600   2.06600   2.15164   2.15164
 Alpha virt. eigenvalues --    2.15441   2.15441   2.30948   2.30948   2.32163
 Alpha virt. eigenvalues --    2.54574   2.54574   2.65690   2.70540   2.70540
 Alpha virt. eigenvalues --    2.72192   2.72192   2.76006   3.01697   3.41016
 Alpha virt. eigenvalues --    4.08519   4.11774   4.11774   4.33034   4.33034
 Alpha virt. eigenvalues --    4.66589
          Condensed to atoms (all electrons):
               1          2          3          4          5          6
     1  C    4.848864   0.551493  -0.031943  -0.040906  -0.031943   0.551493
     2  C    0.551493   4.848864   0.551493  -0.031943  -0.040906  -0.031943
     3  C   -0.031943   0.551493   4.848861   0.551493  -0.031943  -0.040906
     4  C   -0.040906  -0.031943   0.551493   4.848864   0.551493  -0.031943
     5  C   -0.031943  -0.040906  -0.031943   0.551493   4.848864   0.551493
     6  C    0.551493  -0.031943  -0.040906  -0.031943   0.551493   4.848861
     7  H    0.358899  -0.043775   0.004784   0.000578   0.004785  -0.043775
     8  H   -0.043775   0.358899  -0.043775   0.004785   0.000578   0.004784
     9  H    0.004785  -0.043775   0.358898  -0.043775   0.004785   0.000579
    10  H    0.000578   0.004785  -0.043775   0.358899  -0.043775   0.004784
    11  H    0.004785   0.000578   0.004784  -0.043775   0.358899  -0.043775
    12  H   -0.043775   0.004785   0.000579   0.004785  -0.043775   0.358898
               7          8          9         10         11         12
     1  C    0.358899  -0.043775   0.004785   0.000578   0.004785  -0.043775
     2  C   -0.043775   0.358899  -0.043775   0.004785   0.000578   0.004785
     3  C    0.004784  -0.043775   0.358898  -0.043775   0.004784   0.000579
     4  C    0.000578   0.004785  -0.043775   0.358899  -0.043775   0.004785
     5  C    0.004785   0.000578   0.004785  -0.043775   0.358899  -0.043775
     6  C   -0.043775   0.004784   0.000579   0.004784  -0.043775   0.358898
     7  H    0.602043  -0.005872  -0.000182   0.000016  -0.000182  -0.005872
     8  H   -0.005872   0.602043  -0.005872  -0.000182   0.000016  -0.000182
     9  H   -0.000182  -0.005872   0.602044  -0.005872  -0.000182   0.000016
    10  H    0.000016  -0.000182  -0.005872   0.602043  -0.005872  -0.000182
    11  H   -0.000182   0.000016  -0.000182  -0.005872   0.602043  -0.005872
    12  H   -0.005872  -0.000182   0.000016  -0.000182  -0.005872   0.602044
 Mulliken charges:
               1
     1  C   -0.128554
     2  C   -0.128554
     3  C   -0.128551
     4  C   -0.128554
     5  C   -0.128554
     6  C   -0.128551
     7  H    0.128553
     8  H    0.128553
     9  H    0.128552
    10  H    0.128553
    11  H    0.128553
    12  H    0.128552
 Sum of Mulliken charges =  -0.00000
 Mulliken charges with hydrogens summed into heavy atoms:
               1
     1  C   -0.000000
     2  C   -0.000000
     3  C    0.000001
     4  C   -0.000000
     5  C   -0.000000
     6  C    0.000001
 Electronic spatial extent (au):  <R**2>=            458.3201
 Charge=             -0.0000 electrons
 Dipole moment (field-independent basis, Debye):
    X=              0.0000    Y=              0.0000    Z=              0.0000  Tot=              0.0000
 Quadrupole moment (field-independent basis, Debye-Ang):
   XX=            -31.4026   YY=            -31.4026   ZZ=            -38.6009
   XY=              0.0000   XZ=              0.0000   YZ=              0.0000
 Traceless Quadrupole moment (field-independent basis, Debye-Ang):
   XX=              2.3994   YY=              2.3994   ZZ=             -4.7988
   XY=              0.0000   XZ=              0.0000   YZ=              0.0000
 Octapole moment (field-independent basis, Debye-Ang**2):
  XXX=              0.0000  YYY=              0.0000  ZZZ=             -0.0000  XYY=             -0.0000
  XXY=             -0.0000  XXZ=              0.0000  XZZ=             -0.0000  YZZ=              0.0000
  YYZ=              0.0000  XYZ=             -0.0000
 Hexadecapole moment (field-independent basis, Debye-Ang**3):
 XXXX=           -270.1603 YYYY=           -270.1605 ZZZZ=            -40.0521 XXXY=              0.0000
 XXXZ=              0.0000 YYYX=             -0.0000 YYYZ=             -0.0000 ZZZX=              0.0000
 ZZZY=             -0.0000 XXYY=            -90.0534 XXZZ=            -60.3714 YYZZ=            -60.3714
 XXYZ=             -0.0000 YYXZ=              0.0000 ZZXY=             -0.0000
 N-N= 2.031859992387D+02 E-N=-9.437094994129D+02  KE= 2.299258119284D+02
 Symmetry AG   KE= 1.115434648817D+02
 Symmetry BG   KE= 4.473830257483D+00
 Symmetry AU   KE= 1.865770015268D+00
 Symmetry BU   KE= 1.120427467740D+02
 No NMR shielding tensors so no spin-rotation constants.
 Leave Link  601 at Mon May  3 11:18:48 2021, MaxMem=    33554432 cpu:         0.1
 (Enter /opt/app/gaussian09/e01/g09/l9999.exe)
 1\1\GINC-NB-0209\FOpt\RB3LYP\6-31G(d)\C6H6\ROOT\03-May-2021\0\\#p b3ly
 p/6-31g* opt=tight geom=connectivit int=ultrafine\\benzene optimizatio
 n\\0,1\C,5.8566220129,4.1304204171,2.\C,5.1583106701,5.3399304096,2.\C
 ,3.7616889733,5.3399293138,2.\C,3.0633779871,4.1304195829,2.\C,3.76168
 93299,2.9209095904,2.\C,5.1583110267,2.9209106862,2.\H,6.9436339989,4.
 1304193836,2.\H,5.7018152731,6.2813111692,2.\H,3.2181827109,6.28130921
 36,2.\H,1.9763660011,4.1304206164,2.\H,3.2181847269,1.9795288308,2.\H,
 5.7018172891,1.9795307864,2.\\Version=ES64L-G09RevE.01\State=1-AG\HF=-
 232.2486497\RMSD=5.556e-09\RMSF=1.515e-07\Dipole=0.,0.,0.\Quadrupole=1
 .7839109,1.7839047,-3.5678156,0.0000059,0.,0.\PG=C02H [SGH(C6H6)]\\@


 THERE IS SOMETHING FASCINATING ABOUT SCIENCE.
 ONE GETS SUCH WHOLESALE CONJECTURE OUT OF SUCH TRIFLING INVESTMENTS.

                                                       -- MARK TWAIN
 Job cpu time:       0 days  0 hours  0 minutes 57.1 seconds.
 File lengths (MBytes):  RWF=      7 Int=      0 D2E=      0 Chk=      2 Scr=      1
 Normal termination of Gaussian 09 at Mon May  3 11:18:49 2021.
