benzene optimization                                                    
FOpt      RB3LYP                                                      6-31G(d)            
Number of atoms                            I               12
Info1-9                                    I   N=           9
          32          32           0           0           0         110
           2          18        -502
Charge                                     I                0
Multiplicity                               I                1
Number of electrons                        I               42
Number of alpha electrons                  I               21
Number of beta electrons                   I               21
Number of basis functions                  I              102
Number of independent functions            I              102
Number of point charges in /Mol/           I                0
Number of translation vectors              I                0
Atomic numbers                             I   N=          12
           6           6           6           6           6           6
           1           1           1           1           1           1
Nuclear charges                            R   N=          12
  6.00000000E+00  6.00000000E+00  6.00000000E+00  6.00000000E+00  6.00000000E+00
  6.00000000E+00  1.00000000E+00  1.00000000E+00  1.00000000E+00  1.00000000E+00
  1.00000000E+00  1.00000000E+00
Current cartesian coordinates              R   N=          36
  2.28564297E+00 -1.31961647E+00 -1.79949325E-16  2.28564297E+00  1.31961671E+00
 -1.50704360E-16 -1.24117644E-07  2.63923178E+00  2.92449348E-17 -2.28564297E+00
  1.31961647E+00  1.79949325E-16 -2.28564297E+00 -1.31961671E+00  1.50704360E-16
  1.24117645E-07 -2.63923178E+00 -2.92449348E-17  4.06459210E+00 -2.34669611E+00
  2.56345510E-17  4.06459207E+00  2.34669629E+00  7.76413567E-17 -1.15418521E-07
  4.69338684E+00  5.20067343E-17 -4.06459210E+00  2.34669611E+00 -2.56345510E-17
 -4.06459207E+00 -2.34669629E+00 -7.76413567E-17  1.15418521E-07 -4.69338684E+00
 -5.20067343E-17
Force Field                                I                0
Int Atom Types                             I   N=          12
           0           0           0           0           0           0
           0           0           0           0           0           0
MM charges                                 R   N=          12
  0.00000000E+00  0.00000000E+00  0.00000000E+00  0.00000000E+00  0.00000000E+00
  0.00000000E+00  0.00000000E+00  0.00000000E+00  0.00000000E+00  0.00000000E+00
  0.00000000E+00  0.00000000E+00
Integer atomic weights                     I   N=          12
          12          12          12          12          12          12
           1           1           1           1           1           1
Real atomic weights                        R   N=          12
  1.20000000E+01  1.20000000E+01  1.20000000E+01  1.20000000E+01  1.20000000E+01
  1.20000000E+01  1.00782504E+00  1.00782504E+00  1.00782504E+00  1.00782504E+00
  1.00782504E+00  1.00782504E+00
Atom fragment info                         I   N=          12
           0           0           0           0           0           0
           0           0           0           0           0           0
Atom residue num                           I   N=          12
           0           0           0           0           0           0
           0           0           0           0           0           0
Nuclear spins                              I   N=          12
           0           0           0           0           0           0
           1           1           1           1           1           1
Nuclear ZEff                               R   N=          12
 -3.60000000E+00 -3.60000000E+00 -3.60000000E+00 -3.60000000E+00 -3.60000000E+00
 -3.60000000E+00 -1.00000000E+00 -1.00000000E+00 -1.00000000E+00 -1.00000000E+00
 -1.00000000E+00 -1.00000000E+00
Nuclear ZNuc                               R   N=          12
  6.00000000E+00  6.00000000E+00  6.00000000E+00  6.00000000E+00  6.00000000E+00
  6.00000000E+00  1.00000000E+00  1.00000000E+00  1.00000000E+00  1.00000000E+00
  1.00000000E+00  1.00000000E+00
Nuclear QMom                               R   N=          12
  0.00000000E+00  0.00000000E+00  0.00000000E+00  0.00000000E+00  0.00000000E+00
  0.00000000E+00  0.00000000E+00  0.00000000E+00  0.00000000E+00  0.00000000E+00
  0.00000000E+00  0.00000000E+00
Nuclear GFac                               R   N=          12
  0.00000000E+00  0.00000000E+00  0.00000000E+00  0.00000000E+00  0.00000000E+00
  0.00000000E+00  2.79284600E+00  2.79284600E+00  2.79284600E+00  2.79284600E+00
  2.79284600E+00  2.79284600E+00
MicOpt                                     I   N=          12
          -1          -1          -1          -1          -1          -1
          -1          -1          -1          -1          -1          -1
SymInf integers                            I   N=          26
           2           4           1           1           1          -1
          -1           1           1           1          -1          -1
          -1          -1           0           0           0           0
           0           0           0           0           0           0
           0           0
RotTr to input orientation                 R   N=          12
  8.66025273E-01  5.00000227E-01 -1.21962340E-16 -5.00000227E-01  8.66025273E-01
 -1.10808570E-17  1.00082038E-16  7.05775000E-17  1.00000000E+00  8.42817855E+00
  7.80536261E+00  3.77945227E+00
Number of contracted shells                I               36
Number of primitive shells                 I               90
Pure/Cartesian d shells                    I                1
Pure/Cartesian f shells                    I                0
Highest angular momentum                   I                2
Largest degree of contraction              I                6
Shell types                                I   N=          36
           0          -1          -1           2           0          -1
          -1           2           0          -1          -1           2
           0          -1          -1           2           0          -1
          -1           2           0          -1          -1           2
           0           0           0           0           0           0
           0           0           0           0           0           0
Number of primitives per shell             I   N=          36
           6           3           1           1           6           3
           1           1           6           3           1           1
           6           3           1           1           6           3
           1           1           6           3           1           1
           3           1           3           1           3           1
           3           1           3           1           3           1
Shell to atom map                          I   N=          36
           1           1           1           1           2           2
           2           2           3           3           3           3
           4           4           4           4           5           5
           5           5           6           6           6           6
           7           7           8           8           9           9
          10          10          11          11          12          12
Primitive exponents                        R   N=          90
  3.04752488E+03  4.57369518E+02  1.03948685E+02  2.92101553E+01  9.28666296E+00
  3.16392696E+00  7.86827235E+00  1.88128854E+00  5.44249258E-01  1.68714478E-01
  8.00000000E-01  3.04752488E+03  4.57369518E+02  1.03948685E+02  2.92101553E+01
  9.28666296E+00  3.16392696E+00  7.86827235E+00  1.88128854E+00  5.44249258E-01
  1.68714478E-01  8.00000000E-01  3.04752488E+03  4.57369518E+02  1.03948685E+02
  2.92101553E+01  9.28666296E+00  3.16392696E+00  7.86827235E+00  1.88128854E+00
  5.44249258E-01  1.68714478E-01  8.00000000E-01  3.04752488E+03  4.57369518E+02
  1.03948685E+02  2.92101553E+01  9.28666296E+00  3.16392696E+00  7.86827235E+00
  1.88128854E+00  5.44249258E-01  1.68714478E-01  8.00000000E-01  3.04752488E+03
  4.57369518E+02  1.03948685E+02  2.92101553E+01  9.28666296E+00  3.16392696E+00
  7.86827235E+00  1.88128854E+00  5.44249258E-01  1.68714478E-01  8.00000000E-01
  3.04752488E+03  4.57369518E+02  1.03948685E+02  2.92101553E+01  9.28666296E+00
  3.16392696E+00  7.86827235E+00  1.88128854E+00  5.44249258E-01  1.68714478E-01
  8.00000000E-01  1.87311370E+01  2.82539436E+00  6.40121692E-01  1.61277759E-01
  1.87311370E+01  2.82539436E+00  6.40121692E-01  1.61277759E-01  1.87311370E+01
  2.82539436E+00  6.40121692E-01  1.61277759E-01  1.87311370E+01  2.82539436E+00
  6.40121692E-01  1.61277759E-01  1.87311370E+01  2.82539436E+00  6.40121692E-01
  1.61277759E-01  1.87311370E+01  2.82539436E+00  6.40121692E-01  1.61277759E-01
Contraction coefficients                   R   N=          90
  1.83473713E-03  1.40373228E-02  6.88426223E-02  2.32184443E-01  4.67941348E-01
  3.62311985E-01 -1.19332420E-01 -1.60854152E-01  1.14345644E+00  1.00000000E+00
  1.00000000E+00  1.83473713E-03  1.40373228E-02  6.88426223E-02  2.32184443E-01
  4.67941348E-01  3.62311985E-01 -1.19332420E-01 -1.60854152E-01  1.14345644E+00
  1.00000000E+00  1.00000000E+00  1.83473713E-03  1.40373228E-02  6.88426223E-02
  2.32184443E-01  4.67941348E-01  3.62311985E-01 -1.19332420E-01 -1.60854152E-01
  1.14345644E+00  1.00000000E+00  1.00000000E+00  1.83473713E-03  1.40373228E-02
  6.88426223E-02  2.32184443E-01  4.67941348E-01  3.62311985E-01 -1.19332420E-01
 -1.60854152E-01  1.14345644E+00  1.00000000E+00  1.00000000E+00  1.83473713E-03
  1.40373228E-02  6.88426223E-02  2.32184443E-01  4.67941348E-01  3.62311985E-01
 -1.19332420E-01 -1.60854152E-01  1.14345644E+00  1.00000000E+00  1.00000000E+00
  1.83473713E-03  1.40373228E-02  6.88426223E-02  2.32184443E-01  4.67941348E-01
  3.62311985E-01 -1.19332420E-01 -1.60854152E-01  1.14345644E+00  1.00000000E+00
  1.00000000E+00  3.34946043E-02  2.34726953E-01  8.13757326E-01  1.00000000E+00
  3.34946043E-02  2.34726953E-01  8.13757326E-01  1.00000000E+00  3.34946043E-02
  2.34726953E-01  8.13757326E-01  1.00000000E+00  3.34946043E-02  2.34726953E-01
  8.13757326E-01  1.00000000E+00  3.34946043E-02  2.34726953E-01  8.13757326E-01
  1.00000000E+00  3.34946043E-02  2.34726953E-01  8.13757326E-01  1.00000000E+00
P(S=P) Contraction coefficients            R   N=          90
  0.00000000E+00  0.00000000E+00  0.00000000E+00  0.00000000E+00  0.00000000E+00
  0.00000000E+00  6.89990666E-02  3.16423961E-01  7.44308291E-01  1.00000000E+00
  0.00000000E+00  0.00000000E+00  0.00000000E+00  0.00000000E+00  0.00000000E+00
  0.00000000E+00  0.00000000E+00  6.89990666E-02  3.16423961E-01  7.44308291E-01
  1.00000000E+00  0.00000000E+00  0.00000000E+00  0.00000000E+00  0.00000000E+00
  0.00000000E+00  0.00000000E+00  0.00000000E+00  6.89990666E-02  3.16423961E-01
  7.44308291E-01  1.00000000E+00  0.00000000E+00  0.00000000E+00  0.00000000E+00
  0.00000000E+00  0.00000000E+00  0.00000000E+00  0.00000000E+00  6.89990666E-02
  3.16423961E-01  7.44308291E-01  1.00000000E+00  0.00000000E+00  0.00000000E+00
  0.00000000E+00  0.00000000E+00  0.00000000E+00  0.00000000E+00  0.00000000E+00
  6.89990666E-02  3.16423961E-01  7.44308291E-01  1.00000000E+00  0.00000000E+00
  0.00000000E+00  0.00000000E+00  0.00000000E+00  0.00000000E+00  0.00000000E+00
  0.00000000E+00  6.89990666E-02  3.16423961E-01  7.44308291E-01  1.00000000E+00
  0.00000000E+00  0.00000000E+00  0.00000000E+00  0.00000000E+00  0.00000000E+00
  0.00000000E+00  0.00000000E+00  0.00000000E+00  0.00000000E+00  0.00000000E+00
  0.00000000E+00  0.00000000E+00  0.00000000E+00  0.00000000E+00  0.00000000E+00
  0.00000000E+00  0.00000000E+00  0.00000000E+00  0.00000000E+00  0.00000000E+00
  0.00000000E+00  0.00000000E+00  0.00000000E+00  0.00000000E+00  0.00000000E+00
Coordinates of each shell                  R   N=         108
  2.28564297E+00 -1.31961647E+00 -1.79949325E-16  2.28564297E+00 -1.31961647E+00
 -1.79949325E-16  2.28564297E+00 -1.31961647E+00 -1.79949325E-16  2.28564297E+00
 -1.31961647E+00 -1.79949325E-16  2.28564297E+00  1.31961671E+00 -1.50704360E-16
  2.28564297E+00  1.31961671E+00 -1.50704360E-16  2.28564297E+00  1.31961671E+00
 -1.50704360E-16  2.28564297E+00  1.31961671E+00 -1.50704360E-16 -1.24117644E-07
  2.63923178E+00  2.92449341E-17 -1.24117644E-07  2.63923178E+00  2.92449341E-17
 -1.24117644E-07  2.63923178E+00  2.92449341E-17 -1.24117644E-07  2.63923178E+00
  2.92449341E-17 -2.28564297E+00  1.31961647E+00  1.79949325E-16 -2.28564297E+00
  1.31961647E+00  1.79949325E-16 -2.28564297E+00  1.31961647E+00  1.79949325E-16
 -2.28564297E+00  1.31961647E+00  1.79949325E-16 -2.28564297E+00 -1.31961671E+00
  1.50704360E-16 -2.28564297E+00 -1.31961671E+00  1.50704360E-16 -2.28564297E+00
 -1.31961671E+00  1.50704360E-16 -2.28564297E+00 -1.31961671E+00  1.50704360E-16
  1.24117645E-07 -2.63923178E+00 -2.92449341E-17  1.24117645E-07 -2.63923178E+00
 -2.92449341E-17  1.24117645E-07 -2.63923178E+00 -2.92449341E-17  1.24117645E-07
 -2.63923178E+00 -2.92449341E-17  4.06459210E+00 -2.34669611E+00  2.56345517E-17
  4.06459210E+00 -2.34669611E+00  2.56345517E-17  4.06459207E+00  2.34669629E+00
  7.76413562E-17  4.06459207E+00  2.34669629E+00  7.76413562E-17 -1.15418520E-07
  4.69338684E+00  5.20067332E-17 -1.15418520E-07  4.69338684E+00  5.20067332E-17
 -4.06459210E+00  2.34669611E+00 -2.56345517E-17 -4.06459210E+00  2.34669611E+00
 -2.56345517E-17 -4.06459207E+00 -2.34669629E+00 -7.76413562E-17 -4.06459207E+00
 -2.34669629E+00 -7.76413562E-17  1.15418520E-07 -4.69338684E+00 -5.20067332E-17
  1.15418520E-07 -4.69338684E+00 -5.20067332E-17
Constraint Structure                       R   N=          36
  2.29117327E+00 -1.32280466E+00  0.00000000E+00  2.29117327E+00  1.32281918E+00
  0.00000000E+00 -9.44860474E-06  2.64560748E+00  0.00000000E+00 -2.29117327E+00
  1.32280466E+00  0.00000000E+00 -2.29117327E+00 -1.32281918E+00  0.00000000E+00
  9.44860474E-06 -2.64560748E+00  0.00000000E+00  4.02591874E+00 -2.32435677E+00
  0.00000000E+00  4.02590902E+00  2.32436544E+00  0.00000000E+00 -9.71856488E-06
  4.64872221E+00  0.00000000E+00 -4.02591874E+00  2.32435677E+00  0.00000000E+00
 -4.02590902E+00 -2.32436544E+00  0.00000000E+00  9.71856488E-06 -4.64872221E+00
  0.00000000E+00
Num ILSW                                   I              100
ILSW                                       I   N=         100
           0           1           0           0           2           0
           0           0           0           0         402          -1
           5           0           0           0           2           0
           0           0           0           0           1           0
           1           0           0           0           0           0
           0           0      100000           0          -1           0
           0           0           0           0           0           0
           0           0           0           1           0           0
           0           0           1           0           0           0
           0           0           4          41           0           0
           0           0           5           0           0           0
           0           0           0          12           0           0
           0           0           0           0           0           0
           0           0           0           0           0           0
           0           0           0           0           0           0
           0           0           0           0           0           0
           0           0           0           0
Num RLSW                                   I               41
RLSW                                       R   N=          41
  8.00000000E-01  7.20000000E-01  1.00000000E+00  8.10000000E-01  2.00000000E-01
  0.00000000E+00  0.00000000E+00  1.00000000E+00  0.00000000E+00  0.00000000E+00
  0.00000000E+00  0.00000000E+00  1.00000000E+00  0.00000000E+00  0.00000000E+00
  0.00000000E+00  0.00000000E+00  1.00000000E+00  0.00000000E+00  0.00000000E+00
  0.00000000E+00  0.00000000E+00  1.00000000E+00  0.00000000E+00  0.00000000E+00
  0.00000000E+00  0.00000000E+00  1.00000000E+00  0.00000000E+00  0.00000000E+00
  0.00000000E+00  0.00000000E+00  1.00000000E+00  0.00000000E+00  0.00000000E+00
  0.00000000E+00  0.00000000E+00  0.00000000E+00  1.00000000E+00  1.00000000E+00
  0.00000000E+00
MxBond                                     I                3
NBond                                      I   N=          12
           3           3           3           3           3           3
           1           1           1           1           1           1
IBond                                      I   N=          36
           2           6           7           1           3           8
           2           4           9           3           5          10
           4           6          11           1           5          12
           1           0           0           2           0           0
           3           0           0           4           0           0
           5           0           0           6           0           0
RBond                                      R   N=          36
  1.50000000E+00  1.50000000E+00  1.00000000E+00  1.50000000E+00  1.50000000E+00
  1.00000000E+00  1.50000000E+00  1.50000000E+00  1.00000000E+00  1.50000000E+00
  1.50000000E+00  1.00000000E+00  1.50000000E+00  1.50000000E+00  1.00000000E+00
  1.50000000E+00  1.50000000E+00  1.00000000E+00  1.00000000E+00  0.00000000E+00
  0.00000000E+00  1.00000000E+00  0.00000000E+00  0.00000000E+00  1.00000000E+00
  0.00000000E+00  0.00000000E+00  1.00000000E+00  0.00000000E+00  0.00000000E+00
  1.00000000E+00  0.00000000E+00  0.00000000E+00  1.00000000E+00  0.00000000E+00
  0.00000000E+00
Virial Ratio                               R      2.010102553183427E+00
SCF Energy                                 R     -2.322486496716806E+02
Total Energy                               R     -2.322486496716806E+02
RMS Force                                  R      1.515210888531408E-07
RMS Density                                R      5.555930049054466E-09
Job Status                                 I                1
Nuclear derivative order                   I                1
External E-field                           R   N=          35
  0.00000000E+00  0.00000000E+00  0.00000000E+00  0.00000000E+00  0.00000000E+00
  0.00000000E+00  0.00000000E+00  0.00000000E+00  0.00000000E+00  0.00000000E+00
  0.00000000E+00  0.00000000E+00  0.00000000E+00  0.00000000E+00  0.00000000E+00
  0.00000000E+00  0.00000000E+00  0.00000000E+00  0.00000000E+00  0.00000000E+00
  0.00000000E+00  0.00000000E+00  0.00000000E+00  0.00000000E+00  0.00000000E+00
  0.00000000E+00  0.00000000E+00  0.00000000E+00  0.00000000E+00  0.00000000E+00
  0.00000000E+00  0.00000000E+00  0.00000000E+00  0.00000000E+00  0.00000000E+00
IOpCl                                      I                0
IROHF                                      I                0
Alpha Orbital Energies                     R   N=         102
 -1.01877402E+01 -1.01874754E+01 -1.01874754E+01 -1.01869232E+01 -1.01869232E+01
 -1.01866578E+01 -8.46323585E-01 -7.39830343E-01 -7.39830250E-01 -5.97489988E-01
 -5.97489680E-01 -5.18551372E-01 -4.59289504E-01 -4.38104316E-01 -4.17256183E-01
 -4.17255698E-01 -3.59395468E-01 -3.40271224E-01 -3.40271036E-01 -2.46292971E-01
 -2.46292799E-01  3.61819314E-03  3.61840118E-03  9.07416461E-02  1.44688907E-01
  1.44689031E-01  1.63942762E-01  1.81852330E-01  1.81852512E-01  1.90260737E-01
  3.02659481E-01  3.02659496E-01  3.19140220E-01  3.19140310E-01  4.74882328E-01
  5.27356093E-01  5.49038261E-01  5.50296966E-01  5.63969323E-01  5.92513929E-01
  6.02013850E-01  6.02014142E-01  6.02064466E-01  6.02064506E-01  6.26789024E-01
  6.26789171E-01  6.67536969E-01  6.67537339E-01  7.44867353E-01  8.40003743E-01
  8.40003794E-01  8.41101949E-01  8.65009272E-01  8.65009811E-01  9.39038052E-01
  9.39038532E-01  9.40625038E-01  9.57983875E-01  1.08261198E+00  1.08261247E+00
  1.14238493E+00  1.14238527E+00  1.20100034E+00  1.26189087E+00  1.39628373E+00
  1.43637673E+00  1.43637678E+00  1.48697383E+00  1.48697417E+00  1.51542415E+00
  1.51542440E+00  1.75688792E+00  1.78986805E+00  1.85728296E+00  1.89560087E+00
  1.97353374E+00  1.97353449E+00  2.06600136E+00  2.06600200E+00  2.15163938E+00
  2.15163940E+00  2.15441159E+00  2.15441228E+00  2.30948273E+00  2.30948368E+00
  2.32163232E+00  2.54574278E+00  2.54574313E+00  2.65690171E+00  2.70540307E+00
  2.70540324E+00  2.72192071E+00  2.72192078E+00  2.76005874E+00  3.01697309E+00
  3.41016454E+00  4.08519223E+00  4.11773643E+00  4.11773666E+00  4.33033925E+00
  4.33033946E+00  4.66588801E+00
Alpha MO coefficients                      R   N=       10404
  4.05127806E-01  1.97583457E-02  1.11074843E-04 -6.41273920E-05  0.00000000E+00
 -2.55536618E-03 -3.11427634E-04  1.79800405E-04  0.00000000E+00 -3.96008812E-03
 -4.00713170E-03 -4.06659540E-03 -4.70442082E-05  0.00000000E+00  0.00000000E+00
  4.05133254E-01  1.97586202E-02  1.11073435E-04  6.41250820E-05  0.00000000E+00
 -2.55547545E-03 -3.11411930E-04 -1.79781940E-04  0.00000000E+00 -3.96013811E-03
 -4.00717962E-03 -4.06664713E-03  4.70435144E-05  0.00000000E+00  0.00000000E+00
  4.05135681E-01  1.97587483E-02 -1.27087876E-09  1.28253465E-04  0.00000000E+00
 -2.55551190E-03  7.96712591E-09 -3.59579565E-04  0.00000000E+00 -4.03072520E-03
 -3.93664116E-03 -4.06667397E-03  7.12452487E-10  0.00000000E+00  0.00000000E+00
  4.05127806E-01  1.97583457E-02 -1.11074843E-04  6.41273920E-05  0.00000000E+00
 -2.55536618E-03  3.11427634E-04 -1.79800405E-04  0.00000000E+00 -3.96008812E-03
 -4.00713170E-03 -4.06659540E-03 -4.70442082E-05  0.00000000E+00  0.00000000E+00
  4.05133254E-01  1.97586202E-02 -1.11073435E-04 -6.41250820E-05  0.00000000E+00
 -2.55547545E-03  3.11411930E-04  1.79781940E-04  0.00000000E+00 -3.96013811E-03
 -4.00717962E-03 -4.06664713E-03  4.70435144E-05  0.00000000E+00  0.00000000E+00
  4.05135681E-01  1.97587483E-02  1.27087876E-09 -1.28253465E-04  0.00000000E+00
 -2.55551190E-03 -7.96712591E-09  3.59579565E-04  0.00000000E+00 -4.03072520E-03
 -3.93664116E-03 -4.06667397E-03  7.12452487E-10  0.00000000E+00  0.00000000E+00
 -1.92353858E-04  9.06163205E-04 -1.92355949E-04  9.06169522E-04 -1.92356033E-04
  9.06174286E-04 -1.92353858E-04  9.06163205E-04 -1.92355949E-04  9.06169522E-04
 -1.92356033E-04  9.06174286E-04 -9.82447448E-02 -4.87339643E-03 -1.42090692E-04
 -2.58581529E-04  0.00000000E+00  1.00539684E-03  7.07743808E-04  1.35100261E-03
  0.00000000E+00  9.80742627E-04  9.18010468E-04  9.56482247E-04  2.46940875E-05
  0.00000000E+00  0.00000000E+00  4.39827954E-01  2.18175234E-02  7.17917478E-05
 -1.80191366E-04  0.00000000E+00 -4.50118347E-03 -2.53105096E-04  9.98850534E-04
  0.00000000E+00 -4.26520430E-03 -4.23524150E-03 -4.28203432E-03  2.69255669E-05
  0.00000000E+00  0.00000000E+00  5.38076216E-01  2.66911132E-02 -1.03037869E-04
 -3.41614934E-05  0.00000000E+00 -5.50675182E-03  5.32292269E-04  3.42879142E-04
  0.00000000E+00 -5.21517470E-03 -5.18409400E-03 -5.23855269E-03  1.52687405E-05
  0.00000000E+00  0.00000000E+00  9.82447448E-02  4.87339643E-03 -1.42090692E-04
 -2.58581529E-04  0.00000000E+00 -1.00539684E-03  7.07743808E-04  1.35100261E-03
  0.00000000E+00 -9.80742627E-04 -9.18010468E-04 -9.56482247E-04 -2.46940875E-05
  0.00000000E+00  0.00000000E+00 -4.39827954E-01 -2.18175234E-02  7.17917478E-05
 -1.80191366E-04  0.00000000E+00  4.50118347E-03 -2.53105096E-04  9.98850534E-04
  0.00000000E+00  4.26520430E-03  4.23524150E-03  4.28203432E-03 -2.69255669E-05
  0.00000000E+00  0.00000000E+00 -5.38076216E-01 -2.66911132E-02 -1.03037869E-04
 -3.41614934E-05  0.00000000E+00  5.50675182E-03  5.32292269E-04  3.42879142E-04
  0.00000000E+00  5.21517470E-03  5.18409400E-03  5.23855269E-03 -1.52687405E-05
  0.00000000E+00  0.00000000E+00  4.21931706E-05 -1.58969787E-04 -1.88894784E-04
  7.11671265E-04 -2.31090368E-04  8.70632542E-04 -4.21931706E-05  1.58969787E-04
  1.88894784E-04 -7.11671265E-04  2.31090368E-04 -8.70632542E-04  5.64590397E-01
  2.80063214E-02 -5.67046143E-05 -2.65317193E-05  0.00000000E+00 -5.77794425E-03
  4.44089996E-04  4.98002434E-05  0.00000000E+00 -5.44199283E-03 -5.46971014E-03
 -5.49668564E-03 -1.25043763E-05  0.00000000E+00  0.00000000E+00  3.67382919E-01
  1.82239201E-02 -1.35098653E-04  1.87347393E-04  0.00000000E+00 -3.75993578E-03
  7.96343420E-04 -9.11008599E-04  0.00000000E+00 -3.51931023E-03 -3.58100059E-03
 -3.57672820E-03 -6.41618035E-06  0.00000000E+00  0.00000000E+00 -1.97215997E-01
 -9.78284737E-03 -2.81127830E-04  1.25223135E-05  0.00000000E+00  2.01843367E-03
  1.45230254E-03 -1.25720886E-04  0.00000000E+00  1.91146519E-03  1.90007482E-03
  1.92003541E-03  4.16589596E-05  0.00000000E+00  0.00000000E+00 -5.64590397E-01
 -2.80063214E-02 -5.67046143E-05 -2.65317193E-05  0.00000000E+00  5.77794425E-03
  4.44089996E-04  4.98002434E-05  0.00000000E+00  5.44199283E-03  5.46971014E-03
  5.49668564E-03  1.25043763E-05  0.00000000E+00  0.00000000E+00 -3.67382919E-01
 -1.82239201E-02 -1.35098653E-04  1.87347393E-04  0.00000000E+00  3.75993578E-03
  7.96343420E-04 -9.11008599E-04  0.00000000E+00  3.51931023E-03  3.58100059E-03
  3.57672820E-03  6.41618035E-06  0.00000000E+00  0.00000000E+00  1.97215997E-01
  9.78284737E-03 -2.81127830E-04  1.25223135E-05  0.00000000E+00 -2.01843367E-03
  1.45230254E-03 -1.25720886E-04  0.00000000E+00 -1.91146519E-03 -1.90007482E-03
 -1.92003541E-03 -4.16589596E-05  0.00000000E+00  0.00000000E+00 -2.42476673E-04
  9.13550902E-04 -1.57782957E-04  5.94435861E-04  8.47001860E-05 -3.19095208E-04
  2.42476673E-04 -9.13550902E-04  1.57782957E-04 -5.94435861E-04 -8.47001860E-05
  3.19095208E-04 -4.88654400E-02 -2.46225783E-03  1.34789427E-04  1.89920386E-04
  0.00000000E+00  9.78248039E-04 -9.03068263E-04 -1.15513401E-03  0.00000000E+00
  3.52936829E-04  5.25342256E-04  4.64340852E-04 -7.06682840E-05  0.00000000E+00
  0.00000000E+00 -4.70249345E-01 -2.36951816E-02  2.48004438E-04 -1.05188374E-05
  0.00000000E+00  9.41415585E-03 -2.12121231E-03 -2.62218408E-04  0.00000000E+00
  4.22128783E-03  4.23067153E-03  4.46851015E-03  1.30159931E-04  0.00000000E+00
  0.00000000E+00  5.19111020E-01  2.61572646E-02  9.87571633E-05 -2.31291068E-04
  0.00000000E+00 -1.03923795E-02 -6.18391627E-04  2.17264592E-03  0.00000000E+00
 -4.55991169E-03 -4.77026028E-03 -4.93281759E-03 -5.17639245E-05  0.00000000E+00
  0.00000000E+00 -4.88654400E-02 -2.46225783E-03 -1.34789427E-04 -1.89920386E-04
  0.00000000E+00  9.78248039E-04  9.03068263E-04  1.15513401E-03  0.00000000E+00
  3.52936829E-04  5.25342256E-04  4.64340852E-04 -7.06682840E-05  0.00000000E+00
  0.00000000E+00 -4.70249345E-01 -2.36951816E-02 -2.48004438E-04  1.05188374E-05
  0.00000000E+00  9.41415585E-03  2.12121231E-03  2.62218408E-04  0.00000000E+00
  4.22128783E-03  4.23067153E-03  4.46851015E-03  1.30159931E-04  0.00000000E+00
  0.00000000E+00  5.19111020E-01  2.61572646E-02 -9.87571633E-05  2.31291068E-04
  0.00000000E+00 -1.03923795E-02  6.18391627E-04 -2.17264592E-03  0.00000000E+00
 -4.55991169E-03 -4.77026028E-03 -4.93281759E-03 -5.17639245E-05  0.00000000E+00
  0.00000000E+00  1.83938673E-05 -5.64373097E-05  1.77008394E-04 -5.43108094E-04
 -1.95399999E-04  5.99536910E-04  1.83938673E-05 -5.64373097E-05  1.77008394E-04
 -5.43108094E-04 -1.95399999E-04  5.99536910E-04  5.71210517E-01  2.87824653E-02
 -2.10485537E-04  1.44430011E-04 -0.00000000E+00 -1.14353257E-02  2.00828369E-03
 -1.30290148E-03 -0.00000000E+00 -5.19894879E-03 -5.06762338E-03 -5.42788724E-03
  1.10529880E-04 -0.00000000E+00 -0.00000000E+00 -3.27918320E-01 -1.65233330E-02
  3.10873935E-05  2.38368282E-04 -0.00000000E+00  6.56481139E-03 -5.90934152E-04
 -1.72137583E-03 -0.00000000E+00  3.05515385E-03  2.83863100E-03  3.11601790E-03
  1.64106436E-05 -0.00000000E+00 -0.00000000E+00 -2.43283068E-01 -1.22586912E-02
  2.10723388E-04  1.08397234E-04 -0.00000000E+00  4.87045633E-03 -1.31949456E-03
 -1.01823045E-03 -0.00000000E+00  2.13701457E-03  2.23559670E-03  2.31177969E-03
 -1.10451528E-04 -0.00000000E+00 -0.00000000E+00  5.71210517E-01  2.87824653E-02
  2.10485537E-04 -1.44430011E-04 -0.00000000E+00 -1.14353257E-02 -2.00828369E-03
  1.30290148E-03 -0.00000000E+00 -5.19894879E-03 -5.06762338E-03 -5.42788724E-03
  1.10529880E-04 -0.00000000E+00 -0.00000000E+00 -3.27918320E-01 -1.65233330E-02
 -3.10873935E-05 -2.38368282E-04 -0.00000000E+00  6.56481139E-03  5.90934152E-04
  1.72137583E-03 -0.00000000E+00  3.05515385E-03  2.83863100E-03  3.11601790E-03
  1.64106436E-05 -0.00000000E+00 -0.00000000E+00 -2.43283068E-01 -1.22586912E-02
 -2.10723388E-04 -1.08397234E-04 -0.00000000E+00  4.87045633E-03  1.31949456E-03
  1.01823045E-03 -0.00000000E+00  2.13701457E-03  2.23559670E-03  2.31177969E-03
 -1.10451528E-04 -0.00000000E+00 -0.00000000E+00 -2.15011565E-04  6.59713822E-04
  1.23432451E-04 -3.78721139E-04  9.15746321E-05 -2.80972118E-04 -2.15011565E-04
  6.59713822E-04  1.23432451E-04 -3.78721139E-04  9.15746321E-05 -2.80972118E-04
  4.05563512E-01  2.10581980E-02 -2.34452184E-04  1.35363264E-04 -0.00000000E+00
 -2.03338246E-02  7.32436557E-03 -4.22873782E-03 -0.00000000E+00 -3.48269926E-03
 -3.38033687E-03 -3.63457835E-03  1.02360725E-04 -0.00000000E+00 -0.00000000E+00
 -4.05557975E-01 -2.10579232E-02  2.34450962E-04  1.35364567E-04 -0.00000000E+00
  2.03337670E-02 -7.32435833E-03 -4.22874412E-03 -0.00000000E+00  3.48264596E-03
  3.38028310E-03  3.63452439E-03  1.02360735E-04 -0.00000000E+00 -0.00000000E+00
  4.05556337E-01  2.10578498E-02 -1.72792340E-09 -2.70722867E-04 -0.00000000E+00
 -2.03337452E-02  8.19862311E-09  8.45744714E-03 -0.00000000E+00 -3.32909156E-03
 -3.53381366E-03 -3.63451214E-03  2.85073812E-10 -0.00000000E+00 -0.00000000E+00