       144
 Polymer_PPE_144atom mdstep=           0
C     0.433620000000001E+00 -0.303550000000001E+00 -0.125321000000000E+00
C    -0.515496000000001E+00  0.696031000000002E+00  0.283388000000001E+00
C    -0.132817000000000E+00 -0.153870100000000E+01 -0.585353000000001E+00
C    -0.190901000000000E+01  0.462457000000001E+00  0.259004000000001E+00
C    -0.246384100000001E+01 -0.801341000000002E+00 -0.139162000000000E+00
C    -0.152726500000000E+01 -0.180671300000000E+01 -0.580002000000001E+00
C     0.188190300000000E+01 -0.424680000000001E-01 -0.377600000000001E-01
C     0.308525600000001E+01  0.321632000000001E+00 -0.354980000000001E-01
C     0.454766700000001E+01  0.441245000000001E+00  0.361540000000001E-01
C     0.520439300000001E+01  0.165296100000000E+01 -0.395110000000001E+00
C     0.537154400000001E+01 -0.639543000000002E+00  0.526066000000001E+00
C     0.661336100000002E+01  0.176827500000000E+01 -0.397165000000001E+00
C     0.678403400000002E+01 -0.507740000000001E+00  0.546040000000001E+00
C     0.742644700000002E+01  0.686385000000002E+00  0.691020000000002E-01
C     0.886886000000002E+01  0.764196000000002E+00  0.533530000000001E-01
C     0.101187370000000E+02  0.699419000000002E+00  0.109056000000000E+00
C     0.115726560000000E+02  0.657864000000002E+00  0.955470000000002E-01
C     0.122388410000000E+02 -0.329814000000001E+00  0.901308000000002E+00
C     0.123556640000000E+02  0.150945700000000E+01 -0.757734000000002E+00
C     0.137594220000000E+02  0.134367900000000E+01 -0.843281000000002E+00
C     0.136392410000000E+02 -0.489517000000001E+00  0.834111000000002E+00
C     0.144160320000000E+02  0.345522000000001E+00 -0.364470000000001E-01
C     0.158459960000000E+02  0.176159000000000E+00 -0.414380000000001E-01
C     0.170707730000000E+02  0.862730000000002E-01  0.191204000000000E+00
C     0.185114700000000E+02  0.220270000000001E-01  0.168694000000000E+00
C     0.192315770000000E+02 -0.120544400000000E+01  0.373823000000001E+00
C     0.192440180000000E+02  0.121294700000000E+01 -0.137440000000000E+00
C     0.206504190000001E+02  0.116386500000000E+01 -0.247721000000001E+00
C     0.206405150000001E+02 -0.124849400000000E+01  0.330153000000001E+00
C     0.213796240000001E+02 -0.568790000000001E-01 -0.837100000000002E-02
C     0.228340810000001E+02 -0.107624000000000E+00 -0.141672000000000E+00
C     0.240774050000001E+02 -0.265882000000001E+00 -0.166067000000000E+00
C     0.255296880000001E+02 -0.229475000000001E+00 -0.110042000000000E+00
C     0.263114450000001E+02 -0.128129500000000E+01  0.510931000000001E+00
C     0.261822910000001E+02  0.937666000000002E+00 -0.630711000000002E+00
C     0.275901830000001E+02  0.105447600000000E+01 -0.530072000000001E+00
C     0.277050310000001E+02 -0.113322000000000E+01  0.610219000000002E+00
C     0.283688500000001E+02  0.288130000000001E-01  0.936160000000002E-01
C     0.298077430000001E+02  0.103298000000000E+00  0.136505000000000E+00
H    -0.264519500000001E+01  0.128772600000000E+01  0.605397000000002E+00
H    -0.137536000000000E+00  0.172183300000000E+01  0.637116000000002E+00
H    -0.390815900000001E+01 -0.967954000000002E+00 -0.110409000000000E+00
H    -0.190164900000000E+01 -0.282818600000001E+01 -0.944141000000002E+00
H     0.596628000000001E+00 -0.235285500000001E+01 -0.949927000000002E+00
H     0.453968900000001E+01  0.250575700000001E+01 -0.788760000000002E+00
H     0.489492000000001E+01 -0.162201900000000E+01  0.905209000000002E+00
H     0.710778200000002E+01  0.272890500000001E+01 -0.789973000000002E+00
H     0.743167900000002E+01 -0.137250400000000E+01  0.947328000000002E+00
H     0.117987080000000E+02  0.228943800000001E+01 -0.139540500000000E+01
H     0.144295470000000E+02  0.198799000000000E+01 -0.152254500000000E+01
H     0.116004730000000E+02 -0.101354800000000E+01  0.157739900000000E+01
H     0.141739280000000E+02 -0.128192900000000E+01  0.147558200000000E+01
H     0.186800910000000E+02  0.219351000000001E+01 -0.328229000000001E+00
H     0.186118900000000E+02 -0.215627500000001E+01  0.605344000000002E+00
H     0.212420020000001E+02  0.211831000000001E+01 -0.505028000000001E+00
H     0.211978270000001E+02 -0.224505600000001E+01  0.513542000000001E+00
H     0.255278110000001E+02  0.176393500000000E+01 -0.110223700000000E+01
H     0.257771660000001E+02 -0.220675000000001E+01  0.931631000000002E+00
H     0.281494640000001E+02  0.197938800000001E+01 -0.935067000000002E+00
H     0.283589460000001E+02 -0.193835400000001E+01  0.109938200000000E+01
H     0.327045210000001E+02  0.219774200000001E+01 -0.761101000000002E+00
H     0.325325910000001E+02 -0.205847200000001E+01  0.570658000000001E+00
C     0.367856820000001E+02 -0.162610000000000E-01  0.588770000000001E-01
H     0.352842840000001E+02  0.206564300000001E+01 -0.741873000000002E+00
H     0.351039290000001E+02 -0.217268500000001E+01  0.584671000000001E+00
C     0.310492090000001E+02  0.642760000000002E-01  0.244430000000001E-01
C     0.324840450000001E+02  0.796660000000002E-01 -0.340560000000001E-01
C     0.331667710000001E+02 -0.112894600000000E+01  0.310557000000001E+00
C     0.332373990000001E+02  0.122574200000000E+01 -0.447322000000001E+00
C     0.346446800000001E+02  0.116385200000000E+01 -0.434740000000001E+00
C     0.345732800000001E+02 -0.118694300000000E+01  0.313553000000001E+00
C     0.353450580000001E+02 -0.165390000000000E-01 -0.364100000000001E-02
C     0.423296280000001E+02 -0.813970000000002E-01  0.125323000000000E+00
C     0.416841200000001E+02  0.113928600000000E+01 -0.243924000000001E+00
C     0.415007180000001E+02 -0.120589900000000E+01  0.487071000000001E+00
C     0.402812090000001E+02  0.124947700000000E+01 -0.257869000000001E+00
C     0.394654440000001E+02  0.127149000000000E+00  0.853920000000002E-01
C     0.400956140000001E+02 -0.109871700000000E+01  0.471839000000001E+00
C     0.437921250000001E+02 -0.110734000000000E+00  0.139302000000000E+00
C     0.450515340000001E+02 -0.889260000000002E-01  0.974160000000002E-01
C     0.465071940000001E+02  0.442000000000001E-01 -0.968900000000002E-02
C     0.471709930000001E+02  0.120559700000000E+01 -0.549232000000001E+00
C     0.473603690000001E+02 -0.103108300000000E+01  0.405785000000001E+00
C     0.485906920000001E+02  0.126820700000000E+01 -0.666966000000002E+00
C     0.487551490000001E+02 -0.983333000000002E+00  0.260359000000001E+00
C     0.494246530000001E+02  0.184547000000000E+00 -0.244101000000001E+00
C     0.508837560000001E+02  0.246625000000001E+00 -0.227612000000001E+00
C     0.521185450000001E+02  0.173614000000000E+00 -0.397300000000001E-02
C     0.535632750000001E+02  0.101307000000000E+00  0.779080000000002E-01
C     0.542904890000001E+02 -0.108993200000000E+01  0.447268000000001E+00
C     0.542967700000001E+02  0.127273200000000E+01 -0.316093000000001E+00
C     0.557007050000001E+02  0.125488100000000E+01 -0.396438000000001E+00
C     0.557098990000001E+02 -0.109392700000000E+01  0.367799000000001E+00
C     0.564322020000001E+02  0.706930000000002E-01 -0.631410000000002E-01
C     0.578675190000002E+02  0.191945000000000E+00 -0.922500000000002E-01
C     0.590602430000001E+02  0.508630000000001E+00  0.134074000000000E+00
C     0.605069950000001E+02  0.476352000000001E+00  0.118768000000000E+00
C     0.611207510000001E+02 -0.783150000000002E+00 -0.157506000000000E+00
C     0.613247680000001E+02  0.163039300000000E+01  0.353679000000001E+00
C     0.627239970000002E+02  0.152291100000000E+01  0.381929000000001E+00
C     0.625291750000002E+02 -0.882415000000002E+00 -0.162036000000000E+00
C     0.633663790000002E+02  0.255858000000001E+00  0.125581000000000E+00
C     0.648165890000002E+02  0.808440000000002E-01  0.923930000000002E-01
C     0.660472320000002E+02 -0.126058000000000E+00 -0.502790000000001E-01
C     0.674934170000002E+02 -0.195914000000000E+00 -0.138550000000000E+00
C     0.681690250000002E+02 -0.137168300000000E+01 -0.620076000000002E+00
C     0.682974510000002E+02  0.910355000000002E+00  0.290283000000001E+00
C     0.697040740000002E+02  0.824494000000002E+00  0.327180000000001E+00
C     0.695796580000002E+02 -0.145161000000000E+01 -0.626277000000002E+00
C     0.703722390000002E+02 -0.369140000000001E+00 -0.112594000000000E+00
C     0.718253890000002E+02 -0.490549000000001E+00  0.126510000000000E-01
H     0.397849580000001E+02  0.224530700000001E+01 -0.555295000000001E+00
H     0.423427640000001E+02  0.203113000000000E+01 -0.532425000000001E+00
C     0.380206460000001E+02  0.179828000000000E+00  0.558950000000001E-01
H     0.394186400000001E+02 -0.198536100000001E+01  0.756423000000002E+00
H     0.419866130000001E+02 -0.220570700000001E+01  0.794860000000002E+00
H     0.465253120000001E+02  0.209837000000001E+01 -0.915180000000002E+00
H     0.468635750000001E+02 -0.197592300000000E+01  0.832373000000002E+00
H     0.490978190000001E+02  0.221716700000001E+01 -0.109253200000000E+01
H     0.493891850000001E+02 -0.188866600000000E+01  0.596028000000002E+00
H     0.536914920000001E+02  0.221591800000001E+01 -0.582909000000001E+00
H     0.563018000000001E+02  0.218640200000001E+01 -0.706590000000002E+00
H     0.537275990000001E+02 -0.204431900000001E+01  0.761798000000002E+00
H     0.562956460000001E+02 -0.204418600000001E+01  0.668476000000002E+00
H     0.608008670000002E+02  0.263814100000001E+01  0.517729000000001E+00
H     0.604724700000002E+02 -0.170888700000000E+01 -0.382740000000001E+00
H     0.633562990000002E+02  0.246376600000001E+01  0.574918000000001E+00
H     0.630129030000002E+02 -0.189273000000000E+01 -0.404540000000001E+00
H     0.677557710000002E+02  0.186749100000000E+01  0.647483000000002E+00
H     0.675513490000002E+02 -0.227775000000001E+01 -0.983776000000002E+00
H     0.703097190000002E+02  0.171647100000000E+01  0.731894000000002E+00
H     0.701091470000002E+02 -0.241421200000001E+01 -0.979730000000002E+00
H     0.748347460000002E+02  0.999010000000002E+00  0.183086300000000E+01
H     0.744981680000002E+02 -0.208533300000001E+01 -0.137070900000000E+01
H     0.788463790000002E+02 -0.847833000000002E+00 -0.210000000000001E-02
H     0.773687580000002E+02  0.828016000000002E+00  0.171401200000000E+01
H     0.771092250000002E+02 -0.223274300000001E+01 -0.151587700000000E+01
C     0.730642780000002E+02 -0.484175000000001E+00  0.223384000000001E+00
C     0.745153000000002E+02 -0.555793000000001E+00  0.229464000000001E+00
C     0.751757660000002E+02 -0.146186500000000E+01 -0.677495000000002E+00
C     0.753239310000002E+02  0.282237000000001E+00  0.107616900000000E+01
C     0.767360400000002E+02  0.177851000000000E+00  0.101292500000000E+01
C     0.765809170000002E+02 -0.153185600000000E+01 -0.762683000000002E+00
C     0.773875100000002E+02 -0.725863000000002E+00  0.978440000000002E-01
       144
 Polymer_PPE_144atom mdstep=          10
C     0.436289868571170E+00 -0.324979225967940E+00 -0.121096013976036E+00
C    -0.498207497727624E+00  0.645266529677067E+00  0.266383712687233E+00
C    -0.120378889211415E+00 -0.155167045836443E+01 -0.562816571116677E+00
C    -0.188225338709940E+01  0.395894043068693E+00  0.250329099861952E+00
C    -0.241376053180877E+01 -0.814878539929858E+00 -0.141526883773424E+00
C    -0.151480673704219E+01 -0.181555848295406E+01 -0.544931034993379E+00
C     0.192201381062882E+01 -0.471363219907484E-01 -0.151280034755204E-01
C     0.304542209476236E+01  0.231701211873782E+00  0.317603648451639E-01
C     0.452919668635118E+01  0.425243477435196E+00  0.122798229838637E-01
C     0.520344021730677E+01  0.159883977177181E+01 -0.389039068173525E+00
C     0.539730957007825E+01 -0.641190690455840E+00  0.439582139259237E+00
C     0.659822586829983E+01  0.167830312207921E+01 -0.351553353624755E+00
C     0.677285183615026E+01 -0.523830250908201E+00  0.497644966672079E+00
C     0.744447721986230E+01  0.657905350324073E+00  0.112195112414331E+00
C     0.893010444569562E+01  0.738265503181870E+00  0.102697666811693E+00
C     0.101030337153864E+02  0.698064555506617E+00  0.180941033110964E+00
C     0.115849892918226E+02  0.680056519077945E+00  0.842693344416870E-01
C     0.122868584344864E+02 -0.261474738038569E+00  0.845552982288900E+00
C     0.123598256113782E+02  0.152072135152626E+01 -0.752251939776383E+00
C     0.137403072008498E+02  0.133205590519208E+01 -0.791522739152333E+00
C     0.136792324064073E+02 -0.477490183298601E+00  0.761339060331836E+00
C     0.144415870479966E+02  0.366123405500284E+00 -0.257108160505110E-01
C     0.158737259473063E+02  0.215033803945298E+00  0.422464226891542E-02
C     0.170761958860701E+02  0.225860508015813E-01  0.136295906591484E+00
C     0.184795377793655E+02  0.364549493964177E-02  0.112014633339529E+00
C     0.192682958096872E+02 -0.119179826405608E+01  0.366313738524511E+00
C     0.192207079066706E+02  0.115982083758865E+01 -0.176254642456635E+00
C     0.206402856558874E+02  0.113758170703313E+01 -0.219939014381838E+00
C     0.206521857435419E+02 -0.119111468481408E+01  0.329845073565358E+00
C     0.214014583229868E+02 -0.225631084073591E-01 -0.461555296251654E-01
C     0.228711027815265E+02 -0.185239760821393E+00 -0.132860464552926E+00
C     0.240338919464062E+02 -0.291987386672372E+00 -0.160733782608652E+00
C     0.255824852331182E+02 -0.329926063437170E+00 -0.177373710311272E+00
C     0.262877452399919E+02 -0.130169392060633E+01  0.450652128262736E+00
C     0.262494751791079E+02  0.908175198235700E+00 -0.588879262738762E+00
C     0.275896984054902E+02  0.104957261757031E+01 -0.571854542905131E+00
C     0.277243096319520E+02 -0.107776230364458E+01  0.603761567935253E+00
C     0.283621741198472E+02  0.191059086182382E-01  0.714554420738577E-01
C     0.298408476728855E+02  0.105667012804604E+00  0.784776066094003E-01
H    -0.253877489607957E+01  0.133149354550794E+01  0.447129319946247E+00
H    -0.143425882375970E+00  0.169375610435839E+01  0.591708406787098E+00
H    -0.371630368524599E+01 -0.114164713862651E+01 -0.240799513909183E+00
H    -0.188735392379109E+01 -0.282303219935623E+01 -0.949196046157352E+00
H     0.560658175631936E+00 -0.232933261522011E+01 -0.106233367974478E+01
H     0.463163103726044E+01  0.252567757690012E+01 -0.762477805360508E+00
H     0.489254929505191E+01 -0.163481745290930E+01  0.795164264916561E+00
H     0.707281494778604E+01  0.263280183234816E+01 -0.810278799031561E+00
H     0.739445957749401E+01 -0.140595352580968E+01  0.940215412063092E+00
H     0.118896825320760E+02  0.234654006475334E+01 -0.141815603935102E+01
H     0.143378648311513E+02  0.203750911484517E+01 -0.148206816681092E+01
H     0.116663715394989E+02 -0.895090924193234E+00  0.160138352149050E+01
H     0.141829396566238E+02 -0.135172640939037E+01  0.133381196448315E+01
H     0.186935226575167E+02  0.216917129970870E+01 -0.338642947944704E+00
H     0.187096779749533E+02 -0.213728920106035E+01  0.748982614794116E+00
H     0.211581565645840E+02  0.215606681367474E+01 -0.408526055861191E+00
H     0.212734235235886E+02 -0.214208359219153E+01  0.578710127007120E+00
H     0.255810179469315E+02  0.175832670864754E+01 -0.102335354553241E+01
H     0.257938263001019E+02 -0.222709129424456E+01  0.943154631112424E+00
H     0.281382006529136E+02  0.192453008736180E+01 -0.108063790788433E+01
H     0.283347388730919E+02 -0.183201601177821E+01  0.122518082801251E+01
H     0.326956729828187E+02  0.220310778831561E+01 -0.702596584426685E+00
H     0.325477722008210E+02 -0.203925831634779E+01  0.576320222098301E+00
C     0.368417151619038E+02  0.394627262616131E-01  0.731462845366651E-01
H     0.352216608662096E+02  0.215766821454123E+01 -0.715741807305989E+00
H     0.351532464711843E+02 -0.214990900588651E+01  0.342205354730633E+00
C     0.310383240890662E+02  0.982023516314857E-01  0.283627279436996E-01
C     0.324834319772974E+02  0.116702174536980E+00 -0.805962895844697E-01
C     0.332243283057731E+02 -0.112121553251800E+01  0.335198230113840E+00
C     0.332222049696017E+02  0.120776380976739E+01 -0.433339254563997E+00
C     0.346817850843877E+02  0.117824916176084E+01 -0.470106760304414E+00
C     0.345610180597539E+02 -0.117776882804932E+01  0.294262371142197E+00
C     0.353538306579663E+02  0.604699492493537E-01 -0.248700929686462E-01
C     0.423646107962318E+02 -0.125549290990122E+00  0.172369091580710E+00
C     0.416789253937074E+02  0.111581495151580E+01 -0.178660298134271E+00
C     0.414663381944867E+02 -0.117769277091364E+01  0.507644831721227E+00
C     0.402933692513117E+02  0.123755456783445E+01 -0.215852600942336E+00
C     0.394323317390568E+02  0.115272503763031E+00  0.717232958418944E-01
C     0.400636641958275E+02 -0.107817712912867E+01  0.453680923919571E+00
C     0.438453173858784E+02 -0.147736416971760E+00  0.168094091790046E+00
C     0.450434341208824E+02 -0.252917465432070E-01  0.983401298941026E-01
C     0.465210551013767E+02  0.627939843890549E-01  0.291753103041265E-02
C     0.471534451445218E+02  0.119396559295936E+01 -0.522668362233601E+00
C     0.473582282518718E+02 -0.103301230692083E+01  0.420425408000359E+00
C     0.485669183287341E+02  0.124059965410576E+01 -0.665682348481524E+00
C     0.487653884813505E+02 -0.103345327515318E+01  0.211838355468423E+00
C     0.493957511342841E+02  0.180323817751415E+00 -0.235396508709273E+00
C     0.508987556506626E+02  0.279232685746444E+00 -0.202646370387113E+00
C     0.520552848866636E+02  0.154188835622356E+00  0.124987761089364E-01
C     0.535669784695703E+02  0.116319424072432E+00  0.108172447651737E+00
C     0.542666437289918E+02 -0.104836317721058E+01  0.389562127021494E+00
C     0.543205550337712E+02  0.131307200357024E+01 -0.316921963171354E+00
C     0.556718672641396E+02  0.131821713902899E+01 -0.403321926578613E+00
C     0.557028660285327E+02 -0.102050316916373E+01  0.397462866576305E+00
C     0.564134586237637E+02  0.973906227251459E-01 -0.231652792739374E-01
C     0.578758327859192E+02  0.261110502213684E+00  0.271538714768485E-01
C     0.590501958348363E+02  0.522337108965387E+00  0.370280609998647E-01
C     0.605012441159330E+02  0.498113204270387E+00  0.856088819695447E-01
C     0.611454095221865E+02 -0.788672777169145E+00 -0.169932728569005E+00
C     0.613379489210061E+02  0.163612019164166E+01  0.332999286181337E+00
C     0.627361804173723E+02  0.148611614871436E+01  0.368463362817485E+00
C     0.625152108025853E+02 -0.887197717533756E+00 -0.192452273407662E+00
C     0.633507046612236E+02  0.249702897723373E+00  0.964617733198176E-01
C     0.647920502436067E+02  0.782075640274792E-01  0.103973334297488E+00
C     0.659797818626764E+02 -0.102634355880947E+00 -0.191772666304467E-01
C     0.674653126709950E+02 -0.182881019757804E+00 -0.105695235301754E+00
C     0.681751348902964E+02 -0.128844074107059E+01 -0.619359939433199E+00
C     0.682663423895271E+02  0.914451642101212E+00  0.288127808433422E+00
C     0.697041482973538E+02  0.833286076686683E+00  0.305089651631650E+00
C     0.695576470460098E+02 -0.138511740011307E+01 -0.587200931574046E+00
C     0.703846193483874E+02 -0.356693684327749E+00 -0.806445758292059E-01
C     0.718675680453271E+02 -0.499228534313323E+00  0.859260090641404E-01
H     0.398157713833920E+02  0.223074976905572E+01 -0.502308248780439E+00
H     0.423312068128557E+02  0.205184667851452E+01 -0.337721078458782E+00
C     0.379800527999667E+02  0.152724291112412E+00  0.268356615573931E-01
H     0.394350691086509E+02 -0.200403012483197E+01  0.758031013637901E+00
H     0.418951976377042E+02 -0.222738414072231E+01  0.705408414844538E+00
H     0.465446926920421E+02  0.216368355762940E+01 -0.713679354790241E+00
H     0.468578776006139E+02 -0.187921335190984E+01  0.101622873766229E+01
H     0.490468959946732E+02  0.224577302124810E+01 -0.101893547584468E+01
H     0.494244158360934E+02 -0.194194753460885E+01  0.503649101505218E+00
H     0.536751019707552E+02  0.222290515464251E+01 -0.641698603392361E+00
H     0.562890740707608E+02  0.224399478197691E+01 -0.730449504640925E+00
H     0.537187592472373E+02 -0.201558236137276E+01  0.718988022517657E+00
H     0.562584141173804E+02 -0.195687374608827E+01  0.798633253573411E+00
H     0.608820318690915E+02  0.268195664959236E+01  0.522394951112928E+00
H     0.604695992180737E+02 -0.166145043205712E+01 -0.508519005864773E+00
H     0.634127426901436E+02  0.241569516085657E+01  0.519932537503884E+00
H     0.630492976826844E+02 -0.186361482394039E+01 -0.487073056811664E+00
H     0.677484295107495E+02  0.192194804532680E+01  0.503191790330132E+00
H     0.675402987808790E+02 -0.219060151448820E+01 -0.100769519497530E+01
H     0.703187302097328E+02  0.174274258626413E+01  0.598931816287516E+00
H     0.700258009928116E+02 -0.237000002440546E+01 -0.102234876569334E+01
H     0.748072367359191E+02  0.989557399533699E+00  0.180752031264741E+01
H     0.745479310742436E+02 -0.220726160104111E+01 -0.127019894317044E+01
H     0.785898591298165E+02 -0.957012630092591E+00  0.264880393920764E+00
H     0.772985719895662E+02  0.879171340972088E+00  0.163898144580542E+01
H     0.770432508731481E+02 -0.224953610242704E+01 -0.153812019770804E+01
C     0.730012460760323E+02 -0.531270613360853E+00  0.239867656122590E+00
C     0.744811024241670E+02 -0.533876737357650E+00  0.255763414971968E+00
C     0.752023382868559E+02 -0.147879172286657E+01 -0.648543737836496E+00
C     0.752516810186798E+02  0.246812375153833E+00  0.104437276895331E+01
C     0.767135734524508E+02  0.176574532355698E+00  0.951165173892241E+00
C     0.765552950041196E+02 -0.153124565570853E+01 -0.772934090862980E+00
C     0.773028409581803E+02 -0.715364041745706E+00  0.117698408728771E+00
       144
 Polymer_PPE_144atom mdstep=          20
C     0.450930348050044E+00 -0.359228858766170E+00 -0.862903913900788E-01
C    -0.476867578481534E+00  0.615779683749130E+00  0.266873465281803E+00
C    -0.914588311937774E-01 -0.159546839377051E+01 -0.567870152644789E+00
C    -0.190420138067815E+01  0.395314246459365E+00  0.222943274261810E+00
C    -0.231222695957724E+01 -0.844938730283966E+00 -0.151821084314699E+00
C    -0.144672717502134E+01 -0.183202598159774E+01 -0.536773097404465E+00
C     0.190921837767803E+01 -0.700379987345331E-01 -0.247870445750650E-01
C     0.304774337364136E+01  0.129157979876523E+00  0.774442341944961E-01
C     0.452137063924466E+01  0.393550749348420E+00  0.147103076867950E-01
C     0.518522684694461E+01  0.154111442053979E+01 -0.380628713167371E+00
C     0.538657684050174E+01 -0.655032606513301E+00  0.366225449148328E+00
C     0.661533457160673E+01  0.163464467266899E+01 -0.347076582879295E+00
C     0.676363762912690E+01 -0.570020078760275E+00  0.482558928207520E+00
C     0.746827229835009E+01  0.620530800683768E+00  0.128950949443279E+00
C     0.895507328445905E+01  0.704939345918824E+00  0.181252489462809E+00
C     0.101071419829133E+02  0.737658721038671E+00  0.212882008168355E+00
C     0.115692557084848E+02  0.696221426349463E+00  0.951390253177451E-01
C     0.123243997178974E+02 -0.253854249381377E+00  0.834922697812512E+00
C     0.123760495806631E+02  0.150614102905399E+01 -0.745876294544289E+00
C     0.137547710059751E+02  0.138275011609111E+01 -0.765205001791241E+00
C     0.136470888924208E+02 -0.478825905103108E+00  0.714706078217938E+00
C     0.144843718433819E+02  0.392180471562072E+00 -0.371256357356675E-01
C     0.159313906075645E+02  0.263493884619047E+00  0.285518514495306E-01
C     0.170166028623538E+02 -0.213069201266546E-01  0.562161893951353E-01
C     0.185323896769888E+02 -0.561975123033837E-01  0.534321615197110E-01
C     0.192932893833563E+02 -0.117179239403565E+01  0.408588371833872E+00
C     0.192512208670783E+02  0.111030205932008E+01 -0.209305673363478E+00
C     0.206502857623992E+02  0.114987602488613E+01 -0.214481365433323E+00
C     0.206446088491330E+02 -0.114664642301049E+01  0.307863593068235E+00
C     0.214107937877154E+02 -0.291895743704041E-01 -0.600580457195690E-01
C     0.229063306682627E+02 -0.205666647582420E+00 -0.123225900805231E+00
C     0.240572200216888E+02 -0.329321291169296E+00 -0.179195393617357E+00
C     0.254962340251344E+02 -0.341965844368819E+00 -0.193145776989610E+00
C     0.263563314460983E+02 -0.128757379767078E+01  0.405417163511963E+00
C     0.262366680772854E+02  0.858199203868848E+00 -0.604626033831828E+00
C     0.276103288648137E+02  0.101068903792676E+01 -0.613466738927403E+00
C     0.277082130733177E+02 -0.107392885369379E+01  0.621590470666011E+00
C     0.284318651941654E+02  0.218109305479119E-02  0.289906580170031E-01
C     0.298697547782885E+02  0.103340884037681E+00  0.229093042710014E-01
H    -0.265625546030823E+01  0.117556131412621E+01  0.533916964162036E+00
H    -0.127433179744312E+00  0.164710309410446E+01  0.574995059217807E+00
H    -0.327336238417407E+01 -0.964653759209021E+00 -0.154773507941864E+00
H    -0.185450091192036E+01 -0.282951196802300E+01 -0.870371735981559E+00
H     0.587373478248664E+00 -0.244006338451234E+01 -0.897066664729033E+00
H     0.458980294461757E+01  0.243583554815745E+01 -0.721185366111915E+00
H     0.489384457704760E+01 -0.166190186507955E+01  0.610966660309102E+00
H     0.707645761610328E+01  0.263371386728906E+01 -0.605567682376145E+00
H     0.735152011555421E+01 -0.150026755259479E+01  0.775111729359257E+00
H     0.118920317081829E+02  0.231121280580758E+01 -0.138972211918745E+01
H     0.143527127173011E+02  0.208720728425386E+01 -0.142270256595041E+01
H     0.117558032483749E+02 -0.958865550857983E+00  0.153465977555695E+01
H     0.140962991405759E+02 -0.130832355968113E+01  0.135462174396576E+01
H     0.186704710802705E+02  0.206788664678499E+01 -0.370180673740963E+00
H     0.187948803647190E+02 -0.216145350143049E+01  0.672223265860522E+00
H     0.211685575145652E+02  0.213436387171202E+01 -0.412900775580529E+00
H     0.211806438314160E+02 -0.210262675837235E+01  0.612887302339269E+00
H     0.255855267447509E+02  0.170877727789869E+01 -0.978525921270704E+00
H     0.259434247665832E+02 -0.228294802186389E+01  0.763058936377241E+00
H     0.280620127078248E+02  0.198394629983645E+01 -0.973810314328817E+00
H     0.282441193558735E+02 -0.187216248931779E+01  0.122017068980566E+01
H     0.327525151264826E+02  0.216678592435942E+01 -0.793478077579280E+00
H     0.326757443234523E+02 -0.202542168198158E+01  0.639796712252987E+00
C     0.368062644901677E+02  0.104037353374120E+00  0.549194216282539E-01
H     0.351843199741971E+02  0.212589137731990E+01 -0.797960080285205E+00
H     0.351487981997355E+02 -0.199973961015131E+01  0.629360288491392E+00
C     0.310068066064464E+02  0.151154674672949E+00  0.132319135711188E-01
C     0.324932724172681E+02  0.103989254689114E+00 -0.512543902339201E-01
C     0.332364428708417E+02 -0.109021215274781E+01  0.301189543826121E+00
C     0.332452696220527E+02  0.120750483690024E+01 -0.441454931659825E+00
C     0.346537586667872E+02  0.120082587169791E+01 -0.437933322462465E+00
C     0.346072061805588E+02 -0.111134865139714E+01  0.229259079415020E+00
C     0.353830929426628E+02  0.919717270439399E-01 -0.621182906310496E-01
C     0.423445729982849E+02 -0.126882291532595E+00  0.222310243267065E+00
C     0.416891057279025E+02  0.109660647688444E+01 -0.757271900651501E-01
C     0.414980467331115E+02 -0.119436200130574E+01  0.491829573415692E+00
C     0.403163294985704E+02  0.119405647111305E+01 -0.177703007289433E+00
C     0.394295637979704E+02  0.123503800442027E+00  0.691753315495325E-01
C     0.400921465918190E+02 -0.106098821302701E+01  0.443485630726142E+00
C     0.438971427742038E+02 -0.179223495484154E+00  0.192104212290467E+00
C     0.450104308077017E+02  0.268146829522294E-01  0.120941709192569E+00
C     0.465191376829685E+02  0.437806008059034E-01  0.263752891677657E-01
C     0.471706389542481E+02  0.119112064964921E+01 -0.482739629175894E+00
C     0.473796517813211E+02 -0.103438772123956E+01  0.422209035009437E+00
C     0.485402493814579E+02  0.122147691285654E+01 -0.611266306743994E+00
C     0.487188918162868E+02 -0.101389231261549E+01  0.193790578350650E+00
C     0.493937613874529E+02  0.165547601162070E+00 -0.263573983736319E+00
C     0.508890128135802E+02  0.267082561193029E+00 -0.153603175522240E+00
C     0.520209535467045E+02  0.151414541385123E+00  0.197586354588820E-01
C     0.535082299286550E+02  0.151761510756853E+00  0.657452865790679E-01
C     0.542705487086863E+02 -0.953536940242084E+00  0.356479745342032E+00
C     0.542820736196512E+02  0.132676250221140E+01 -0.325397010197473E+00
C     0.556400385296222E+02  0.132428017334156E+01 -0.386529619243649E+00
C     0.556993794763382E+02 -0.929952358383185E+00  0.419672039756904E+00
C     0.564224974787909E+02  0.197472566174619E+00  0.547343068599030E-01
C     0.579036161602782E+02  0.312355885186869E+00  0.137451682372376E+00
C     0.590042199154994E+02  0.505935793250662E+00 -0.457735397405338E-01
C     0.605088962629738E+02  0.524876879687349E+00  0.461830413938278E-01
C     0.611617443034598E+02 -0.727565464796006E+00 -0.216786804221783E+00
C     0.613312700805102E+02  0.158022422660185E+01  0.312407694818563E+00
C     0.627509358261259E+02  0.144857920133766E+01  0.326101892319506E+00
C     0.625123681865910E+02 -0.879450742819122E+00 -0.223364050036569E+00
C     0.633496539760298E+02  0.215609977348493E+00  0.869284238850223E-01
C     0.648151996057963E+02  0.779415536662131E-01  0.854101536342083E-01
C     0.659343537699940E+02 -0.631695040336434E-01  0.121695322912459E-01
C     0.674181947810891E+02 -0.134378162509641E+00 -0.687854782040781E-01
C     0.681382987506085E+02 -0.125538873252713E+01 -0.599962017839033E+00
C     0.682967625325270E+02  0.941643913347102E+00  0.270351721084691E+00
C     0.696514390896371E+02  0.846640508663677E+00  0.273477597102043E+00
C     0.695482049515935E+02 -0.134488961738098E+01 -0.562932241529867E+00
C     0.703829241944609E+02 -0.329858724074955E+00 -0.169040693497535E-01
C     0.718236868433303E+02 -0.486203510616239E+00  0.143266252092617E+00
H     0.398809578963883E+02  0.220262677223986E+01 -0.430138543019785E+00
H     0.423280839709777E+02  0.199968297569920E+01 -0.330823712485284E+00
C     0.379687318884581E+02  0.137935268302635E+00  0.110859056212162E-02
H     0.394687210649590E+02 -0.198195138671099E+01  0.658086034381402E+00