Title Card Required                                                     
FOpt      RB3LYP                                                      6-31G(d)            
Number of atoms                            I               24
Info1-9                                    I   N=           9
          56          56           0           0           0         110
           2          18        -502
Charge                                     I                0
Multiplicity                               I                1
Number of electrons                        I              108
Number of alpha electrons                  I               54
Number of beta electrons                   I               54
Number of basis functions                  I              256
Number of independent functions            I              256
Number of point charges in /Mol/           I                0
Number of translation vectors              I                0
Atomic numbers                             I   N=          24
           6           6           6           6           6           6
           6           6           6           6           6           1
           6           6           6           1           1           1
           1           1           1           1           8           8
Nuclear charges                            R   N=          24
  6.00000000E+00  6.00000000E+00  6.00000000E+00  6.00000000E+00  6.00000000E+00
  6.00000000E+00  6.00000000E+00  6.00000000E+00  6.00000000E+00  6.00000000E+00
  6.00000000E+00  1.00000000E+00  6.00000000E+00  6.00000000E+00  6.00000000E+00
  1.00000000E+00  1.00000000E+00  1.00000000E+00  1.00000000E+00  1.00000000E+00
  1.00000000E+00  1.00000000E+00  8.00000000E+00  8.00000000E+00
Current cartesian coordinates              R   N=          72
  6.98294338E+00  1.32292307E+00  9.82204192E-04  4.70703244E+00  2.64282078E+00
  2.39594134E-04  2.41003431E+00  1.33104669E+00 -1.51356708E-04  2.41003514E+00
 -1.33104545E+00  7.27730013E-05  4.70703341E+00 -2.64281969E+00  6.25770318E-04
  6.98294385E+00 -1.32292245E+00  1.19526397E-03 -8.01182882E-07  2.79409460E+00
 -6.10748775E-04  1.01625965E-06 -2.79409505E+00 -3.95519939E-04 -2.41003514E+00
 -1.33104536E+00 -1.42807005E-04 -2.41003489E+00  1.33104638E+00  9.04528616E-05
 -4.70703317E+00  2.64281986E+00  7.77356014E-04 -4.65629971E+00  4.69272256E+00
  8.86116110E-04 -6.98294355E+00  1.32292234E+00  1.26847399E-03 -6.98294348E+00
 -1.32292306E+00  8.79247146E-04 -4.70703262E+00 -2.64281973E+00  1.19303440E-04
  8.76139303E+00  2.34904375E+00  1.33293893E-03  4.65630055E+00  4.69272314E+00
  1.31524107E-05  4.65629709E+00 -4.69272215E+00  6.49701295E-04  8.76139526E+00
 -2.34903993E+00  1.80777540E-03 -8.76139423E+00  2.34904126E+00  1.91988180E-03
 -8.76139425E+00 -2.34904204E+00  1.18232224E-03 -4.65629684E+00 -4.69272237E+00
 -1.54406705E-04  7.63219451E-07 -5.11151920E+00 -2.27628463E-03 -8.08507300E-07
  5.11151648E+00 -2.39090554E-03
Force Field                                I                0
Int Atom Types                             I   N=          24
           0           0           0           0           0           0
           0           0           0           0           0           0
           0           0           0           0           0           0
           0           0           0           0           0           0
MM charges                                 R   N=          24
  0.00000000E+00  0.00000000E+00  0.00000000E+00  0.00000000E+00  0.00000000E+00
  0.00000000E+00  0.00000000E+00  0.00000000E+00  0.00000000E+00  0.00000000E+00
  0.00000000E+00  0.00000000E+00  0.00000000E+00  0.00000000E+00  0.00000000E+00
  0.00000000E+00  0.00000000E+00  0.00000000E+00  0.00000000E+00  0.00000000E+00
  0.00000000E+00  0.00000000E+00  0.00000000E+00  0.00000000E+00
Integer atomic weights                     I   N=          24
          12          12          12          12          12          12
          12          12          12          12          12           1
          12          12          12           1           1           1
           1           1           1           1          16          16
Real atomic weights                        R   N=          24
  1.20000000E+01  1.20000000E+01  1.20000000E+01  1.20000000E+01  1.20000000E+01
  1.20000000E+01  1.20000000E+01  1.20000000E+01  1.20000000E+01  1.20000000E+01
  1.20000000E+01  1.00782504E+00  1.20000000E+01  1.20000000E+01  1.20000000E+01
  1.00782504E+00  1.00782504E+00  1.00782504E+00  1.00782504E+00  1.00782504E+00
  1.00782504E+00  1.00782504E+00  1.59949146E+01  1.59949146E+01
Atom fragment info                         I   N=          24
           0           0           0           0           0           0
           0           0           0           0           0           0
           0           0           0           0           0           0
           0           0           0           0           0           0
Atom residue num                           I   N=          24
           0           0           0           0           0           0
           0           0           0           0           0           0
           0           0           0           0           0           0
           0           0           0           0           0           0
Nuclear spins                              I   N=          24
           0           0           0           0           0           0
           0           0           0           0           0           1
           0           0           0           1           1           1
           1           1           1           1           0           0
Nuclear ZEff                               R   N=          24
 -3.60000000E+00 -3.60000000E+00 -3.60000000E+00 -3.60000000E+00 -3.60000000E+00
 -3.60000000E+00 -3.60000000E+00 -3.60000000E+00 -3.60000000E+00 -3.60000000E+00
 -3.60000000E+00 -1.00000000E+00 -3.60000000E+00 -3.60000000E+00 -3.60000000E+00
 -1.00000000E+00 -1.00000000E+00 -1.00000000E+00 -1.00000000E+00 -1.00000000E+00
 -1.00000000E+00 -1.00000000E+00 -5.60000000E+00 -5.60000000E+00
Nuclear ZNuc                               R   N=          24
  6.00000000E+00  6.00000000E+00  6.00000000E+00  6.00000000E+00  6.00000000E+00
  6.00000000E+00  6.00000000E+00  6.00000000E+00  6.00000000E+00  6.00000000E+00
  6.00000000E+00  1.00000000E+00  6.00000000E+00  6.00000000E+00  6.00000000E+00
  1.00000000E+00  1.00000000E+00  1.00000000E+00  1.00000000E+00  1.00000000E+00
  1.00000000E+00  1.00000000E+00  8.00000000E+00  8.00000000E+00
Nuclear QMom                               R   N=          24
  0.00000000E+00  0.00000000E+00  0.00000000E+00  0.00000000E+00  0.00000000E+00
  0.00000000E+00  0.00000000E+00  0.00000000E+00  0.00000000E+00  0.00000000E+00
  0.00000000E+00  0.00000000E+00  0.00000000E+00  0.00000000E+00  0.00000000E+00
  0.00000000E+00  0.00000000E+00  0.00000000E+00  0.00000000E+00  0.00000000E+00
  0.00000000E+00  0.00000000E+00  0.00000000E+00  0.00000000E+00
Nuclear GFac                               R   N=          24
  0.00000000E+00  0.00000000E+00  0.00000000E+00  0.00000000E+00  0.00000000E+00
  0.00000000E+00  0.00000000E+00  0.00000000E+00  0.00000000E+00  0.00000000E+00
  0.00000000E+00  2.79284600E+00  0.00000000E+00  0.00000000E+00  0.00000000E+00
  2.79284600E+00  2.79284600E+00  2.79284600E+00  2.79284600E+00  2.79284600E+00
  2.79284600E+00  2.79284600E+00  0.00000000E+00  0.00000000E+00
MicOpt                                     I   N=          24
          -1          -1          -1          -1          -1          -1
          -1          -1          -1          -1          -1          -1
          -1          -1          -1          -1          -1          -1
          -1          -1          -1          -1          -1          -1
SymInf integers                            I   N=          26
           1           1           1           1           1           0
           0           0           0           0           0           0
           0           0           0           0           0           0
           0           0           0           0           0           0
           0           0
RotTr to input orientation                 R   N=          12
 -8.62071157E-01 -5.06784432E-01 -1.69127361E-03  5.06774853E-01 -8.62068608E-01
  4.11856507E-03 -3.54521855E-03  2.69340122E-03  9.99990088E-01 -9.44298656E-01
 -1.38678901E+00 -2.13723277E-02
Number of contracted shells                I               80
Number of primitive shells                 I              208
Pure/Cartesian d shells                    I                1
Pure/Cartesian f shells                    I                0
Highest angular momentum                   I                2
Largest degree of contraction              I                6
Shell types                                I   N=          80
           0          -1          -1           2           0          -1
          -1           2           0          -1          -1           2
           0          -1          -1           2           0          -1
          -1           2           0          -1          -1           2
           0          -1          -1           2           0          -1
          -1           2           0          -1          -1           2
           0          -1          -1           2           0          -1
          -1           2           0           0           0          -1
          -1           2           0          -1          -1           2
           0          -1          -1           2           0           0
           0           0           0           0           0           0
           0           0           0           0           0           0
           0          -1          -1           2           0          -1
          -1           2
Number of primitives per shell             I   N=          80
           6           3           1           1           6           3
           1           1           6           3           1           1
           6           3           1           1           6           3
           1           1           6           3           1           1
           6           3           1           1           6           3
           1           1           6           3           1           1
           6           3           1           1           6           3
           1           1           3           1           6           3
           1           1           6           3           1           1
           6           3           1           1           3           1
           3           1           3           1           3           1
           3           1           3           1           3           1
           6           3           1           1           6           3
           1           1
Shell to atom map                          I   N=          80
           1           1           1           1           2           2
           2           2           3           3           3           3
           4           4           4           4           5           5
           5           5           6           6           6           6
           7           7           7           7           8           8
           8           8           9           9           9           9
          10          10          10          10          11          11
          11          11          12          12          13          13
          13          13          14          14          14          14
          15          15          15          15          16          16
          17          17          18          18          19          19
          20          20          21          21          22          22
          23          23          23          23          24          24
          24          24
Primitive exponents                        R   N=         208
  3.04752488E+03  4.57369518E+02  1.03948685E+02  2.92101553E+01  9.28666296E+00
  3.16392696E+00  7.86827235E+00  1.88128854E+00  5.44249258E-01  1.68714478E-01
  8.00000000E-01  3.04752488E+03  4.57369518E+02  1.03948685E+02  2.92101553E+01
  9.28666296E+00  3.16392696E+00  7.86827235E+00  1.88128854E+00  5.44249258E-01
  1.68714478E-01  8.00000000E-01  3.04752488E+03  4.57369518E+02  1.03948685E+02
  2.92101553E+01  9.28666296E+00  3.16392696E+00  7.86827235E+00  1.88128854E+00
  5.44249258E-01  1.68714478E-01  8.00000000E-01  3.04752488E+03  4.57369518E+02
  1.03948685E+02  2.92101553E+01  9.28666296E+00  3.16392696E+00  7.86827235E+00
  1.88128854E+00  5.44249258E-01  1.68714478E-01  8.00000000E-01  3.04752488E+03
  4.57369518E+02  1.03948685E+02  2.92101553E+01  9.28666296E+00  3.16392696E+00
  7.86827235E+00  1.88128854E+00  5.44249258E-01  1.68714478E-01  8.00000000E-01
  3.04752488E+03  4.57369518E+02  1.03948685E+02  2.92101553E+01  9.28666296E+00
  3.16392696E+00  7.86827235E+00  1.88128854E+00  5.44249258E-01  1.68714478E-01
  8.00000000E-01  3.04752488E+03  4.57369518E+02  1.03948685E+02  2.92101553E+01
  9.28666296E+00  3.16392696E+00  7.86827235E+00  1.88128854E+00  5.44249258E-01
  1.68714478E-01  8.00000000E-01  3.04752488E+03  4.57369518E+02  1.03948685E+02
  2.92101553E+01  9.28666296E+00  3.16392696E+00  7.86827235E+00  1.88128854E+00
  5.44249258E-01  1.68714478E-01  8.00000000E-01  3.04752488E+03  4.57369518E+02
  1.03948685E+02  2.92101553E+01  9.28666296E+00  3.16392696E+00  7.86827235E+00
  1.88128854E+00  5.44249258E-01  1.68714478E-01  8.00000000E-01  3.04752488E+03
  4.57369518E+02  1.03948685E+02  2.92101553E+01  9.28666296E+00  3.16392696E+00
  7.86827235E+00  1.88128854E+00  5.44249258E-01  1.68714478E-01  8.00000000E-01
  3.04752488E+03  4.57369518E+02  1.03948685E+02  2.92101553E+01  9.28666296E+00
  3.16392696E+00  7.86827235E+00  1.88128854E+00  5.44249258E-01  1.68714478E-01
  8.00000000E-01  1.87311370E+01  2.82539436E+00  6.40121692E-01  1.61277759E-01
  3.04752488E+03  4.57369518E+02  1.03948685E+02  2.92101553E+01  9.28666296E+00
  3.16392696E+00  7.86827235E+00  1.88128854E+00  5.44249258E-01  1.68714478E-01
  8.00000000E-01  3.04752488E+03  4.57369518E+02  1.03948685E+02  2.92101553E+01
  9.28666296E+00  3.16392696E+00  7.86827235E+00  1.88128854E+00  5.44249258E-01
  1.68714478E-01  8.00000000E-01  3.04752488E+03  4.57369518E+02  1.03948685E+02
  2.92101553E+01  9.28666296E+00  3.16392696E+00  7.86827235E+00  1.88128854E+00
  5.44249258E-01  1.68714478E-01  8.00000000E-01  1.87311370E+01  2.82539436E+00
  6.40121692E-01  1.61277759E-01  1.87311370E+01  2.82539436E+00  6.40121692E-01
  1.61277759E-01  1.87311370E+01  2.82539436E+00  6.40121692E-01  1.61277759E-01
  1.87311370E+01  2.82539436E+00  6.40121692E-01  1.61277759E-01  1.87311370E+01
  2.82539436E+00  6.40121692E-01  1.61277759E-01  1.87311370E+01  2.82539436E+00
  6.40121692E-01  1.61277759E-01  1.87311370E+01  2.82539436E+00  6.40121692E-01
  1.61277759E-01  5.48467166E+03  8.25234946E+02  1.88046958E+02  5.29645000E+01
  1.68975704E+01  5.79963534E+00  1.55396162E+01  3.59993359E+00  1.01376175E+00
  2.70005823E-01  8.00000000E-01  5.48467166E+03  8.25234946E+02  1.88046958E+02
  5.29645000E+01  1.68975704E+01  5.79963534E+00  1.55396162E+01  3.59993359E+00
  1.01376175E+00  2.70005823E-01  8.00000000E-01
Contraction coefficients                   R   N=         208
  1.83473713E-03  1.40373228E-02  6.88426223E-02  2.32184443E-01  4.67941348E-01
  3.62311985E-01 -1.19332420E-01 -1.60854152E-01  1.14345644E+00  1.00000000E+00
  1.00000000E+00  1.83473713E-03  1.40373228E-02  6.88426223E-02  2.32184443E-01
  4.67941348E-01  3.62311985E-01 -1.19332420E-01 -1.60854152E-01  1.14345644E+00
  1.00000000E+00  1.00000000E+00  1.83473713E-03  1.40373228E-02  6.88426223E-02
  2.32184443E-01  4.67941348E-01  3.62311985E-01 -1.19332420E-01 -1.60854152E-01
  1.14345644E+00  1.00000000E+00  1.00000000E+00  1.83473713E-03  1.40373228E-02
  6.88426223E-02  2.32184443E-01  4.67941348E-01  3.62311985E-01 -1.19332420E-01
 -1.60854152E-01  1.14345644E+00  1.00000000E+00  1.00000000E+00  1.83473713E-03
  1.40373228E-02  6.88426223E-02  2.32184443E-01  4.67941348E-01  3.62311985E-01
 -1.19332420E-01 -1.60854152E-01  1.14345644E+00  1.00000000E+00  1.00000000E+00
  1.83473713E-03  1.40373228E-02  6.88426223E-02  2.32184443E-01  4.67941348E-01
  3.62311985E-01 -1.19332420E-01 -1.60854152E-01  1.14345644E+00  1.00000000E+00
  1.00000000E+00  1.83473713E-03  1.40373228E-02  6.88426223E-02  2.32184443E-01
  4.67941348E-01  3.62311985E-01 -1.19332420E-01 -1.60854152E-01  1.14345644E+00
  1.00000000E+00  1.00000000E+00  1.83473713E-03  1.40373228E-02  6.88426223E-02
  2.32184443E-01  4.67941348E-01  3.62311985E-01 -1.19332420E-01 -1.60854152E-01
  1.14345644E+00  1.00000000E+00  1.00000000E+00  1.83473713E-03  1.40373228E-02
  6.88426223E-02  2.32184443E-01  4.67941348E-01  3.62311985E-01 -1.19332420E-01
 -1.60854152E-01  1.14345644E+00  1.00000000E+00  1.00000000E+00  1.83473713E-03
  1.40373228E-02  6.88426223E-02  2.32184443E-01  4.67941348E-01  3.62311985E-01
 -1.19332420E-01 -1.60854152E-01  1.14345644E+00  1.00000000E+00  1.00000000E+00
  1.83473713E-03  1.40373228E-02  6.88426223E-02  2.32184443E-01  4.67941348E-01
  3.62311985E-01 -1.19332420E-01 -1.60854152E-01  1.14345644E+00  1.00000000E+00
  1.00000000E+00  3.34946043E-02  2.34726953E-01  8.13757326E-01  1.00000000E+00
  1.83473713E-03  1.40373228E-02  6.88426223E-02  2.32184443E-01  4.67941348E-01
  3.62311985E-01 -1.19332420E-01 -1.60854152E-01  1.14345644E+00  1.00000000E+00
  1.00000000E+00  1.83473713E-03  1.40373228E-02  6.88426223E-02  2.32184443E-01
  4.67941348E-01  3.62311985E-01 -1.19332420E-01 -1.60854152E-01  1.14345644E+00
  1.00000000E+00  1.00000000E+00  1.83473713E-03  1.40373228E-02  6.88426223E-02
  2.32184443E-01  4.67941348E-01  3.62311985E-01 -1.19332420E-01 -1.60854152E-01
  1.14345644E+00  1.00000000E+00  1.00000000E+00  3.34946043E-02  2.34726953E-01
  8.13757326E-01  1.00000000E+00  3.34946043E-02  2.34726953E-01  8.13757326E-01
  1.00000000E+00  3.34946043E-02  2.34726953E-01  8.13757326E-01  1.00000000E+00
  3.34946043E-02  2.34726953E-01  8.13757326E-01  1.00000000E+00  3.34946043E-02
  2.34726953E-01  8.13757326E-01  1.00000000E+00  3.34946043E-02  2.34726953E-01
  8.13757326E-01  1.00000000E+00  3.34946043E-02  2.34726953E-01  8.13757326E-01
  1.00000000E+00  1.83107443E-03  1.39501722E-02  6.84450781E-02  2.32714336E-01
  4.70192898E-01  3.58520853E-01 -1.10777550E-01 -1.48026263E-01  1.13076702E+00
  1.00000000E+00  1.00000000E+00  1.83107443E-03  1.39501722E-02  6.84450781E-02
  2.32714336E-01  4.70192898E-01  3.58520853E-01 -1.10777550E-01 -1.48026263E-01
  1.13076702E+00  1.00000000E+00  1.00000000E+00
P(S=P) Contraction coefficients            R   N=         208
  0.00000000E+00  0.00000000E+00  0.00000000E+00  0.00000000E+00  0.00000000E+00
  0.00000000E+00  6.89990666E-02  3.16423961E-01  7.44308291E-01  1.00000000E+00
  0.00000000E+00  0.00000000E+00  0.00000000E+00  0.00000000E+00  0.00000000E+00
  0.00000000E+00  0.00000000E+00  6.89990666E-02  3.16423961E-01  7.44308291E-01
  1.00000000E+00  0.00000000E+00  0.00000000E+00  0.00000000E+00  0.00000000E+00
  0.00000000E+00  0.00000000E+00  0.00000000E+00  6.89990666E-02  3.16423961E-01
  7.44308291E-01  1.00000000E+00  0.00000000E+00  0.00000000E+00  0.00000000E+00
  0.00000000E+00  0.00000000E+00  0.00000000E+00  0.00000000E+00  6.89990666E-02
  3.16423961E-01  7.44308291E-01  1.00000000E+00  0.00000000E+00  0.00000000E+00
  0.00000000E+00  0.00000000E+00  0.00000000E+00  0.00000000E+00  0.00000000E+00
  6.89990666E-02  3.16423961E-01  7.44308291E-01  1.00000000E+00  0.00000000E+00
  0.00000000E+00  0.00000000E+00  0.00000000E+00  0.00000000E+00  0.00000000E+00
  0.00000000E+00  6.89990666E-02  3.16423961E-01  7.44308291E-01  1.00000000E+00
  0.00000000E+00  0.00000000E+00  0.00000000E+00  0.00000000E+00  0.00000000E+00
  0.00000000E+00  0.00000000E+00  6.89990666E-02  3.16423961E-01  7.44308291E-01
  1.00000000E+00  0.00000000E+00  0.00000000E+00  0.00000000E+00  0.00000000E+00
  0.00000000E+00  0.00000000E+00  0.00000000E+00  6.89990666E-02  3.16423961E-01
  7.44308291E-01  1.00000000E+00  0.00000000E+00  0.00000000E+00  0.00000000E+00
  0.00000000E+00  0.00000000E+00  0.00000000E+00  0.00000000E+00  6.89990666E-02
  3.16423961E-01  7.44308291E-01  1.00000000E+00  0.00000000E+00  0.00000000E+00
  0.00000000E+00  0.00000000E+00  0.00000000E+00  0.00000000E+00  0.00000000E+00
  6.89990666E-02  3.16423961E-01  7.44308291E-01  1.00000000E+00  0.00000000E+00
  0.00000000E+00  0.00000000E+00  0.00000000E+00  0.00000000E+00  0.00000000E+00
  0.00000000E+00  6.89990666E-02  3.16423961E-01  7.44308291E-01  1.00000000E+00
  0.00000000E+00  0.00000000E+00  0.00000000E+00  0.00000000E+00  0.00000000E+00
  0.00000000E+00  0.00000000E+00  0.00000000E+00  0.00000000E+00  0.00000000E+00
  0.00000000E+00  6.89990666E-02  3.16423961E-01  7.44308291E-01  1.00000000E+00
  0.00000000E+00  0.00000000E+00  0.00000000E+00  0.00000000E+00  0.00000000E+00
  0.00000000E+00  0.00000000E+00  6.89990666E-02  3.16423961E-01  7.44308291E-01
  1.00000000E+00  0.00000000E+00  0.00000000E+00  0.00000000E+00  0.00000000E+00
  0.00000000E+00  0.00000000E+00  0.00000000E+00  6.89990666E-02  3.16423961E-01
  7.44308291E-01  1.00000000E+00  0.00000000E+00  0.00000000E+00  0.00000000E+00
  0.00000000E+00  0.00000000E+00  0.00000000E+00  0.00000000E+00  0.00000000E+00
  0.00000000E+00  0.00000000E+00  0.00000000E+00  0.00000000E+00  0.00000000E+00
  0.00000000E+00  0.00000000E+00  0.00000000E+00  0.00000000E+00  0.00000000E+00
  0.00000000E+00  0.00000000E+00  0.00000000E+00  0.00000000E+00  0.00000000E+00
  0.00000000E+00  0.00000000E+00  0.00000000E+00  0.00000000E+00  0.00000000E+00
  0.00000000E+00  0.00000000E+00  0.00000000E+00  0.00000000E+00  0.00000000E+00
  0.00000000E+00  0.00000000E+00  7.08742682E-02  3.39752839E-01  7.27158577E-01
  1.00000000E+00  0.00000000E+00  0.00000000E+00  0.00000000E+00  0.00000000E+00
  0.00000000E+00  0.00000000E+00  0.00000000E+00  7.08742682E-02  3.39752839E-01
  7.27158577E-01  1.00000000E+00  0.00000000E+00
Coordinates of each shell                  R   N=         240
  6.98294338E+00  1.32292307E+00  9.82204192E-04  6.98294338E+00  1.32292307E+00
  9.82204192E-04  6.98294338E+00  1.32292307E+00  9.82204192E-04  6.98294338E+00
  1.32292307E+00  9.82204192E-04  4.70703244E+00  2.64282078E+00  2.39594134E-04
  4.70703244E+00  2.64282078E+00  2.39594134E-04  4.70703244E+00  2.64282078E+00
  2.39594134E-04  4.70703244E+00  2.64282078E+00  2.39594134E-04  2.41003431E+00
  1.33104669E+00 -1.51356708E-04  2.41003431E+00  1.33104669E+00 -1.51356708E-04
  2.41003431E+00  1.33104669E+00 -1.51356708E-04  2.41003431E+00  1.33104669E+00
 -1.51356708E-04  2.41003514E+00 -1.33104545E+00  7.27730013E-05  2.41003514E+00
 -1.33104545E+00  7.27730013E-05  2.41003514E+00 -1.33104545E+00  7.27730013E-05
  2.41003514E+00 -1.33104545E+00  7.27730013E-05  4.70703341E+00 -2.64281969E+00
  6.25770318E-04  4.70703341E+00 -2.64281969E+00  6.25770318E-04  4.70703341E+00
 -2.64281969E+00  6.25770318E-04  4.70703341E+00 -2.64281969E+00  6.25770318E-04
  6.98294385E+00 -1.32292245E+00  1.19526397E-03  6.98294385E+00 -1.32292245E+00
  1.19526397E-03  6.98294385E+00 -1.32292245E+00  1.19526397E-03  6.98294385E+00
 -1.32292245E+00  1.19526397E-03 -8.01182877E-07  2.79409460E+00 -6.10748775E-04
 -8.01182877E-07  2.79409460E+00 -6.10748775E-04 -8.01182877E-07  2.79409460E+00
 -6.10748775E-04 -8.01182877E-07  2.79409460E+00 -6.10748775E-04  1.01625964E-06
 -2.79409505E+00 -3.95519939E-04  1.01625964E-06 -2.79409505E+00 -3.95519939E-04
  1.01625964E-06 -2.79409505E+00 -3.95519939E-04  1.01625964E-06 -2.79409505E+00
 -3.95519939E-04 -2.41003514E+00 -1.33104536E+00 -1.42807005E-04 -2.41003514E+00
 -1.33104536E+00 -1.42807005E-04 -2.41003514E+00 -1.33104536E+00 -1.42807005E-04
 -2.41003514E+00 -1.33104536E+00 -1.42807005E-04 -2.41003489E+00  1.33104638E+00
  9.04528616E-05 -2.41003489E+00  1.33104638E+00  9.04528616E-05 -2.41003489E+00
  1.33104638E+00  9.04528616E-05 -2.41003489E+00  1.33104638E+00  9.04528616E-05
 -4.70703317E+00  2.64281986E+00  7.77356014E-04 -4.70703317E+00  2.64281986E+00
  7.77356014E-04 -4.70703317E+00  2.64281986E+00  7.77356014E-04 -4.70703317E+00
  2.64281986E+00  7.77356014E-04 -4.65629971E+00  4.69272256E+00  8.86116110E-04
 -4.65629971E+00  4.69272256E+00  8.86116110E-04 -6.98294355E+00  1.32292234E+00
  1.26847399E-03 -6.98294355E+00  1.32292234E+00  1.26847399E-03 -6.98294355E+00
  1.32292234E+00  1.26847399E-03 -6.98294355E+00  1.32292234E+00  1.26847399E-03
 -6.98294348E+00 -1.32292306E+00  8.79247146E-04 -6.98294348E+00 -1.32292306E+00
  8.79247146E-04 -6.98294348E+00 -1.32292306E+00  8.79247146E-04 -6.98294348E+00
 -1.32292306E+00  8.79247146E-04 -4.70703262E+00 -2.64281973E+00  1.19303440E-04
 -4.70703262E+00 -2.64281973E+00  1.19303440E-04 -4.70703262E+00 -2.64281973E+00
  1.19303440E-04 -4.70703262E+00 -2.64281973E+00  1.19303440E-04  8.76139303E+00
  2.34904375E+00  1.33293893E-03  8.76139303E+00  2.34904375E+00  1.33293893E-03
  4.65630055E+00  4.69272314E+00  1.31524107E-05  4.65630055E+00  4.69272314E+00
  1.31524107E-05  4.65629709E+00 -4.69272215E+00  6.49701295E-04  4.65629709E+00
 -4.69272215E+00  6.49701295E-04  8.76139526E+00 -2.34903993E+00  1.80777540E-03
  8.76139526E+00 -2.34903993E+00  1.80777540E-03 -8.76139423E+00  2.34904126E+00
  1.91988180E-03 -8.76139423E+00  2.34904126E+00  1.91988180E-03 -8.76139425E+00
 -2.34904204E+00  1.18232224E-03 -8.76139425E+00 -2.34904204E+00  1.18232224E-03
 -4.65629684E+00 -4.69272237E+00 -1.54406705E-04 -4.65629684E+00 -4.69272237E+00
 -1.54406705E-04  7.63219441E-07 -5.11151920E+00 -2.27628463E-03  7.63219441E-07
 -5.11151920E+00 -2.27628463E-03  7.63219441E-07 -5.11151920E+00 -2.27628463E-03
  7.63219441E-07 -5.11151920E+00 -2.27628463E-03 -8.08507293E-07  5.11151648E+00
 -2.39090554E-03 -8.08507293E-07  5.11151648E+00 -2.39090554E-03 -8.08507293E-07
  5.11151648E+00 -2.39090554E-03 -8.08507293E-07  5.11151648E+00 -2.39090554E-03
Constraint Structure                       R   N=          72
  6.89702843E+00  1.34693702E+00  4.16716168E-03  4.67397302E+00  2.65382801E+00
 -4.94378724E-03  2.30089335E+00  1.34998369E+00 -3.61189710E-03  2.30068836E+00
 -1.35001284E+00 -2.97779476E-03  4.67363663E+00 -2.65407906E+00  3.91820264E-03
  6.89684252E+00 -1.34744028E+00  8.69193515E-03  6.02486172E-05  2.65245293E+00
 -3.58396898E-03 -2.12536138E-04 -2.65233982E+00 -4.78240374E-03 -2.30110834E+00
 -1.34981849E+00 -3.37717114E-03 -2.30090595E+00  1.35009427E+00 -4.16640261E-04
 -4.67390566E+00  2.65393327E+00  3.66762303E-03 -4.64806336E+00  4.73336887E+00
  7.66591445E-03 -6.89711008E+00  1.34718360E+00  7.23379064E-03 -6.89725229E+00
 -1.34709586E+00  2.82919340E-03 -4.67400190E+00 -2.65382682E+00 -1.98193297E-03
  8.72224973E+00  2.34167738E+00  7.71886229E-03  4.64840549E+00  4.73323063E+00
 -7.63689105E-03  4.64767689E+00 -4.73347556E+00  3.69337275E-03  8.72247019E+00
 -2.34142315E+00  1.31450789E-02 -8.72251593E+00  2.34163593E+00  1.17157010E-02
 -8.72272688E+00 -2.34144539E+00  5.88768022E-03 -4.64795871E+00 -4.73327118E+00
 -5.27078609E-03  3.15297192E-04 -5.35464807E+00 -4.18595038E-03  7.73182589E-04
  5.35476116E+00 -4.05314893E-03
Num ILSW                                   I              100
ILSW                                       I   N=         100
           0           1           0           0           2           0
           0           0           0           0         402          -1
           5           0           0           0           2           0
           0           0           0           0           1           0
           1           0           0           0           0           0
           0           0      100000           0          -1           0
           0           0           0           0           0           0
           0           0           0           1           0           0
           0           0           1           0           0           0
           0           0           4          41           0           0
           0           0           5           0           0           0
           0           0           0          24           0           0
           0           0           0           0           0           0
           0           0           0           0           0           0
           0           0           0           0           0           0
           0           0           0           0           0           0
           0           0           0           0
Num RLSW                                   I               41
RLSW                                       R   N=          41
  8.00000000E-01  7.20000000E-01  1.00000000E+00  8.10000000E-01  2.00000000E-01
  0.00000000E+00  0.00000000E+00  1.00000000E+00  0.00000000E+00  0.00000000E+00
  0.00000000E+00  0.00000000E+00  1.00000000E+00  0.00000000E+00  0.00000000E+00
  0.00000000E+00  0.00000000E+00  1.00000000E+00  0.00000000E+00  0.00000000E+00
  0.00000000E+00  0.00000000E+00  1.00000000E+00  0.00000000E+00  0.00000000E+00
  0.00000000E+00  0.00000000E+00  1.00000000E+00  0.00000000E+00  0.00000000E+00
  0.00000000E+00  0.00000000E+00  1.00000000E+00  0.00000000E+00  0.00000000E+00
  0.00000000E+00  0.00000000E+00  0.00000000E+00  1.00000000E+00  1.00000000E+00
  0.00000000E+00
MxBond                                     I                3
NBond                                      I   N=          24
           3           3           3           3           3           3
           3           3           3           3           3           1
           3           3           3           1           1           1