 Entering Gaussian System, Link 0=/opt/app/gaussian09/e01/g09/g09.exec
 Input=anthraquinone_opt.gjf
 Output=anthraquinone_opt.log
 Initial command:
 /opt/app/gaussian09/e01/g09/l1.exe "./Gau-70738.inp" -scrdir="./"
 Entering Link 1 = /opt/app/gaussian09/e01/g09/l1.exe PID=     70742.
  
 Copyright (c) 1988,1990,1992,1993,1995,1998,2003,2009,2015,
            Gaussian, Inc.  All Rights Reserved.
  
 This is part of the Gaussian(R) 09 program.  It is based on
 the Gaussian(R) 03 system (copyright 2003, Gaussian, Inc.),
 the Gaussian(R) 98 system (copyright 1998, Gaussian, Inc.),
 the Gaussian(R) 94 system (copyright 1995, Gaussian, Inc.),
 the Gaussian 92(TM) system (copyright 1992, Gaussian, Inc.),
 the Gaussian 90(TM) system (copyright 1990, Gaussian, Inc.),
 the Gaussian 88(TM) system (copyright 1988, Gaussian, Inc.),
 the Gaussian 86(TM) system (copyright 1986, Carnegie Mellon
 University), and the Gaussian 82(TM) system (copyright 1983,
 Carnegie Mellon University). Gaussian is a federally registered
 trademark of Gaussian, Inc.
  
 This software contains proprietary and confidential information,
 including trade secrets, belonging to Gaussian, Inc.
  
 This software is provided under written license and may be
 used, copied, transmitted, or stored only in accord with that
 written license.
  
 The following legend is applicable only to US Government
 contracts under FAR:
  
                    RESTRICTED RIGHTS LEGEND
  
 Use, reproduction and disclosure by the US Government is
 subject to restrictions as set forth in subparagraphs (a)
 and (c) of the Commercial Computer Software - Restricted
 Rights clause in FAR 52.227-19.
  
 Gaussian, Inc.
 340 Quinnipiac St., Bldg. 40, Wallingford CT 06492
  
  
 ---------------------------------------------------------------
 Warning -- This program may not be used in any manner that
 competes with the business of Gaussian, Inc. or will provide
 assistance to any competitor of Gaussian, Inc.  The licensee
 of this program is prohibited from giving any competitor of
 Gaussian, Inc. access to this program.  By using this program,
 the user acknowledges that Gaussian, Inc. is engaged in the
 business of creating and licensing software in the field of
 computational chemistry and represents and warrants to the
 licensee that it is not a competitor of Gaussian, Inc. and that
 it will not use this program in any manner prohibited above.
 ---------------------------------------------------------------
  

 Cite this work as:
 Gaussian 09, Revision E.01,
 M. J. Frisch, G. W. Trucks, H. B. Schlegel, G. E. Scuseria, 
 M. A. Robb, J. R. Cheeseman, G. Scalmani, V. Barone, B. Mennucci, 
 G. A. Petersson, H. Nakatsuji, M. Caricato, X. Li, H. P. Hratchian, 
 A. F. Izmaylov, J. Bloino, G. Zheng, J. L. Sonnenberg, M. Hada, 
 M. Ehara, K. Toyota, R. Fukuda, J. Hasegawa, M. Ishida, T. Nakajima, 
 Y. Honda, O. Kitao, H. Nakai, T. Vreven, J. A. Montgomery, Jr., 
 J. E. Peralta, F. Ogliaro, M. Bearpark, J. J. Heyd, E. Brothers, 
 K. N. Kudin, V. N. Staroverov, T. Keith, R. Kobayashi, J. Normand, 
 K. Raghavachari, A. Rendell, J. C. Burant, S. S. Iyengar, J. Tomasi, 
 M. Cossi, N. Rega, J. M. Millam, M. Klene, J. E. Knox, J. B. Cross, 
 V. Bakken, C. Adamo, J. Jaramillo, R. Gomperts, R. E. Stratmann, 
 O. Yazyev, A. J. Austin, R. Cammi, C. Pomelli, J. W. Ochterski, 
 R. L. Martin, K. Morokuma, V. G. Zakrzewski, G. A. Voth, 
 P. Salvador, J. J. Dannenberg, S. Dapprich, A. D. Daniels, 
 O. Farkas, J. B. Foresman, J. V. Ortiz, J. Cioslowski, 
 and D. J. Fox, Gaussian, Inc., Wallingford CT, 2013.
 
 ******************************************
 Gaussian 09:  ES64L-G09RevE.01 30-Nov-2015
                30-May-2021 
 ******************************************
 %chk=anthraquinone_opt.chk
 ---------------------------------------------------
 #p opt b3lyp/6-31g* geom=connectivity int=ultrafine
 ---------------------------------------------------
 1/14=-1,18=20,19=15,26=4,38=1,57=2/1,3;
 2/9=110,12=2,17=6,18=5,40=1/2;
 3/5=1,6=6,7=1,11=2,16=1,25=1,30=1,71=1,74=-5,75=-5/1,2,3;
 4//1;
 5/5=2,38=5/2;
 6/7=2,8=2,9=2,10=2,28=1/1;
 7//1,2,3,16;
 1/14=-1,18=20,19=15,26=4/3(2);
 2/9=110/2;
 99//99;
 2/9=110/2;
 3/5=1,6=6,7=1,11=2,16=1,25=1,30=1,71=1,74=-5,75=-5/1,2,3;
 4/5=5,16=3,69=1/1;
 5/5=2,38=5/2;
 7//1,2,3,16;
 1/14=-1,18=20,19=15,26=4/3(-5);
 2/9=110/2;
 6/7=2,8=2,9=2,10=2,19=2,28=1/1;
 99/9=1/99;
 Leave Link    1 at Sun May 30 18:09:35 2021, MaxMem=           0 cpu:         0.0
 (Enter /opt/app/gaussian09/e01/g09/l101.exe)
 -------------------
 Title Card Required
 -------------------
 Symbolic Z-matrix:
 Charge =  0 Multiplicity = 1
 C                    -3.28481  -3.198    -0.01292 
 C                    -1.92019  -3.198    -0.01292 
 C                    -1.1873   -1.96678  -0.01292 
 C                    -1.9113   -0.73503  -0.01843 
 C                    -3.34354  -0.77652  -0.01973 
 C                    -4.00732  -1.96881  -0.01636 
 C                     0.2116   -1.94389  -0.00802 
 C                    -1.21092   0.47614  -0.02016 
 C                     0.18802   0.49902  -0.01453 
 C                     0.91199  -0.73268  -0.00711 
 C                     2.34417  -0.69106   0. 
 H                     2.89004  -1.64658   0.0066 
 C                     3.00791   0.5013    0.00104 
 C                     2.28543   1.73041  -0.00713 
 C                     0.92078   1.73027  -0.0145 
 H                    -3.85068  -4.14127  -0.01051 
 H                    -1.35086  -4.13973  -0.00981 
 H                    -3.88935   0.17903  -0.02434 
 H                    -5.10672  -2.00498  -0.01779 
 H                     4.10732   0.5372    0.0072 
 H                     2.85151   2.67359  -0.00604 
 H                     0.35124   2.67189  -0.02077 
 O                    -1.93587   1.70874  -0.0257 
 O                     0.93599  -3.17682  -0.00241 
 
 NAtoms=     24 NQM=       24 NQMF=       0 NMMI=      0 NMMIF=      0
                NMic=       0 NMicF=      0.
                    Isotopes and Nuclear Properties:
 (Nuclear quadrupole moments (NQMom) in fm**2, nuclear magnetic moments (NMagM)
  in nuclear magnetons)

  Atom         1           2           3           4           5           6           7           8           9          10
 IAtWgt=          12          12          12          12          12          12          12          12          12          12
 AtmWgt=  12.0000000  12.0000000  12.0000000  12.0000000  12.0000000  12.0000000  12.0000000  12.0000000  12.0000000  12.0000000
 NucSpn=           0           0           0           0           0           0           0           0           0           0
 AtZEff=   0.0000000   0.0000000   0.0000000   0.0000000   0.0000000   0.0000000   0.0000000   0.0000000   0.0000000   0.0000000
 NQMom=    0.0000000   0.0000000   0.0000000   0.0000000   0.0000000   0.0000000   0.0000000   0.0000000   0.0000000   0.0000000
 NMagM=    0.0000000   0.0000000   0.0000000   0.0000000   0.0000000   0.0000000   0.0000000   0.0000000   0.0000000   0.0000000
 AtZNuc=   6.0000000   6.0000000   6.0000000   6.0000000   6.0000000   6.0000000   6.0000000   6.0000000   6.0000000   6.0000000

  Atom        11          12          13          14          15          16          17          18          19          20
 IAtWgt=          12           1          12          12          12           1           1           1           1           1
 AtmWgt=  12.0000000   1.0078250  12.0000000  12.0000000  12.0000000   1.0078250   1.0078250   1.0078250   1.0078250   1.0078250
 NucSpn=           0           1           0           0           0           1           1           1           1           1
 AtZEff=   0.0000000   0.0000000   0.0000000   0.0000000   0.0000000   0.0000000   0.0000000   0.0000000   0.0000000   0.0000000
 NQMom=    0.0000000   0.0000000   0.0000000   0.0000000   0.0000000   0.0000000   0.0000000   0.0000000   0.0000000   0.0000000
 NMagM=    0.0000000   2.7928460   0.0000000   0.0000000   0.0000000   2.7928460   2.7928460   2.7928460   2.7928460   2.7928460
 AtZNuc=   6.0000000   1.0000000   6.0000000   6.0000000   6.0000000   1.0000000   1.0000000   1.0000000   1.0000000   1.0000000

  Atom        21          22          23          24
 IAtWgt=           1           1          16          16
 AtmWgt=   1.0078250   1.0078250  15.9949146  15.9949146
 NucSpn=           1           1           0           0
 AtZEff=   0.0000000   0.0000000   0.0000000   0.0000000
 NQMom=    0.0000000   0.0000000   0.0000000   0.0000000
 NMagM=    2.7928460   2.7928460   0.0000000   0.0000000
 AtZNuc=   1.0000000   1.0000000   8.0000000   8.0000000
 Leave Link  101 at Sun May 30 18:09:36 2021, MaxMem=    33554432 cpu:         0.1
 (Enter /opt/app/gaussian09/e01/g09/l103.exe)

 GradGradGradGradGradGradGradGradGradGradGradGradGradGradGradGradGradGrad
 Berny optimization.
 Initialization pass.
                           ----------------------------
                           !    Initial Parameters    !
                           ! (Angstroms and Degrees)  !
 --------------------------                            --------------------------
 ! Name  Definition              Value          Derivative Info.                !
 --------------------------------------------------------------------------------
 ! R1    R(1,2)                  1.3646         estimate D2E/DX2                !
 ! R2    R(1,6)                  1.4258         estimate D2E/DX2                !
 ! R3    R(1,16)                 1.1            estimate D2E/DX2                !
 ! R4    R(2,3)                  1.4328         estimate D2E/DX2                !
 ! R5    R(2,17)                 1.1005         estimate D2E/DX2                !
 ! R6    R(3,4)                  1.4288         estimate D2E/DX2                !
 ! R7    R(3,7)                  1.3991         estimate D2E/DX2                !
 ! R8    R(4,5)                  1.4328         estimate D2E/DX2                !
 ! R9    R(4,8)                  1.3991         estimate D2E/DX2                !
 ! R10   R(5,6)                  1.3646         estimate D2E/DX2                !
 ! R11   R(5,18)                 1.1005         estimate D2E/DX2                !
 ! R12   R(6,19)                 1.1            estimate D2E/DX2                !
 ! R13   R(7,10)                 1.3991         estimate D2E/DX2                !
 ! R14   R(7,24)                 1.43           estimate D2E/DX2                !
 ! R15   R(8,9)                  1.3991         estimate D2E/DX2                !
 ! R16   R(8,23)                 1.43           estimate D2E/DX2                !
 ! R17   R(9,10)                 1.4287         estimate D2E/DX2                !
 ! R18   R(9,15)                 1.4328         estimate D2E/DX2                !
 ! R19   R(10,11)                1.4328         estimate D2E/DX2                !
 ! R20   R(11,12)                1.1005         estimate D2E/DX2                !
 ! R21   R(11,13)                1.3646         estimate D2E/DX2                !
 ! R22   R(13,14)                1.4258         estimate D2E/DX2                !
 ! R23   R(13,20)                1.1            estimate D2E/DX2                !
 ! R24   R(14,15)                1.3647         estimate D2E/DX2                !
 ! R25   R(14,21)                1.1            estimate D2E/DX2                !
 ! R26   R(15,22)                1.1005         estimate D2E/DX2                !
 ! A1    A(2,1,6)              120.4466         estimate D2E/DX2                !
 ! A2    A(2,1,16)             120.9594         estimate D2E/DX2                !
 ! A3    A(6,1,16)             118.5939         estimate D2E/DX2                !
 ! A4    A(1,2,3)              120.7635         estimate D2E/DX2                !
 ! A5    A(1,2,17)             121.155          estimate D2E/DX2                !
 ! A6    A(3,2,17)             118.0813         estimate D2E/DX2                !
 ! A7    A(2,3,4)              118.7901         estimate D2E/DX2                !
 ! A8    A(2,3,7)              121.7006         estimate D2E/DX2                !
 ! A9    A(4,3,7)              119.5092         estimate D2E/DX2                !
 ! A10   A(3,4,5)              118.7868         estimate D2E/DX2                !
 ! A11   A(3,4,8)              119.5145         estimate D2E/DX2                !
 ! A12   A(5,4,8)              121.6986         estimate D2E/DX2                !
 ! A13   A(4,5,6)              120.765          estimate D2E/DX2                !
 ! A14   A(4,5,18)             118.0759         estimate D2E/DX2                !
 ! A15   A(6,5,18)             121.1591         estimate D2E/DX2                !
 ! A16   A(1,6,5)              120.4476         estimate D2E/DX2                !
 ! A17   A(1,6,19)             118.5627         estimate D2E/DX2                !
 ! A18   A(5,6,19)             120.9896         estimate D2E/DX2                !
 ! A19   A(3,7,10)             120.9763         estimate D2E/DX2                !
 ! A20   A(3,7,24)             119.4985         estimate D2E/DX2                !
 ! A21   A(10,7,24)            119.5252         estimate D2E/DX2                !
 ! A22   A(4,8,9)              120.9759         estimate D2E/DX2                !
 ! A23   A(4,8,23)             119.499          estimate D2E/DX2                !
 ! A24   A(9,8,23)             119.5251         estimate D2E/DX2                !
 ! A25   A(8,9,10)             119.5096         estimate D2E/DX2                !
 ! A26   A(8,9,15)             121.6954         estimate D2E/DX2                !
 ! A27   A(10,9,15)            118.7949         estimate D2E/DX2                !
 ! A28   A(7,10,9)             119.5142         estimate D2E/DX2                !
 ! A29   A(7,10,11)            121.7035         estimate D2E/DX2                !
 ! A30   A(9,10,11)            118.7822         estimate D2E/DX2                !
 ! A31   A(10,11,12)           118.0746         estimate D2E/DX2                !
 ! A32   A(10,11,13)           120.7675         estimate D2E/DX2                !
 ! A33   A(12,11,13)           121.1578         estimate D2E/DX2                !
 ! A34   A(11,13,14)           120.4489         estimate D2E/DX2                !
 ! A35   A(11,13,20)           120.9732         estimate D2E/DX2                !
 ! A36   A(14,13,20)           118.5779         estimate D2E/DX2                !
 ! A37   A(13,14,15)           120.4423         estimate D2E/DX2                !
 ! A38   A(13,14,21)           118.5802         estimate D2E/DX2                !
 ! A39   A(15,14,21)           120.9774         estimate D2E/DX2                !
 ! A40   A(9,15,14)            120.7641         estimate D2E/DX2                !
 ! A41   A(9,15,22)            118.0731         estimate D2E/DX2                !
 ! A42   A(14,15,22)           121.1628         estimate D2E/DX2                !
 ! D1    D(6,1,2,3)              0.1607         estimate D2E/DX2                !
 ! D2    D(6,1,2,17)           179.9717         estimate D2E/DX2                !
 ! D3    D(16,1,2,3)          -179.854          estimate D2E/DX2                !
 ! D4    D(16,1,2,17)           -0.0429         estimate D2E/DX2                !
 ! D5    D(2,1,6,5)              0.0013         estimate D2E/DX2                !
 ! D6    D(2,1,6,19)           179.9091         estimate D2E/DX2                !
 ! D7    D(16,1,6,5)          -179.9844         estimate D2E/DX2                !
 ! D8    D(16,1,6,19)           -0.0766         estimate D2E/DX2                !
 ! D9    D(1,2,3,4)             -0.2525         estimate D2E/DX2                !
 ! D10   D(1,2,3,7)            179.7643         estimate D2E/DX2                !
 ! D11   D(17,2,3,4)           179.9308         estimate D2E/DX2                !
 ! D12   D(17,2,3,7)            -0.0524         estimate D2E/DX2                !
 ! D13   D(2,3,4,5)              0.1839         estimate D2E/DX2                !
 ! D14   D(2,3,4,8)           -179.9227         estimate D2E/DX2                !
 ! D15   D(7,3,4,5)           -179.8326         estimate D2E/DX2                !
 ! D16   D(7,3,4,8)              0.0609         estimate D2E/DX2                !
 ! D17   D(2,3,7,10)          -179.9531         estimate D2E/DX2                !
 ! D18   D(2,3,7,24)            -0.021          estimate D2E/DX2                !
 ! D19   D(4,3,7,10)             0.0639         estimate D2E/DX2                !
 ! D20   D(4,3,7,24)           179.996          estimate D2E/DX2                !
 ! D21   D(3,4,5,6)             -0.0283         estimate D2E/DX2                !
 ! D22   D(3,4,5,18)          -179.98           estimate D2E/DX2                !
 ! D23   D(8,4,5,6)           -179.9193         estimate D2E/DX2                !
 ! D24   D(8,4,5,18)             0.129          estimate D2E/DX2                !
 ! D25   D(3,4,8,9)             -0.0966         estimate D2E/DX2                !
 ! D26   D(3,4,8,23)           179.9991         estimate D2E/DX2                !
 ! D27   D(5,4,8,9)            179.7937         estimate D2E/DX2                !
 ! D28   D(5,4,8,23)            -0.1107         estimate D2E/DX2                !
 ! D29   D(4,5,6,1)             -0.0673         estimate D2E/DX2                !
 ! D30   D(4,5,6,19)          -179.9728         estimate D2E/DX2                !
 ! D31   D(18,5,6,1)           179.8829         estimate D2E/DX2                !
 ! D32   D(18,5,6,19)           -0.0226         estimate D2E/DX2                !
 ! D33   D(3,7,10,9)            -0.1515         estimate D2E/DX2                !
 ! D34   D(3,7,10,11)          179.9003         estimate D2E/DX2                !
 ! D35   D(24,7,10,9)          179.9164         estimate D2E/DX2                !
 ! D36   D(24,7,10,11)          -0.0317         estimate D2E/DX2                !
 ! D37   D(4,8,9,10)             0.0089         estimate D2E/DX2                !
 ! D38   D(4,8,9,15)          -179.9202         estimate D2E/DX2                !
 ! D39   D(23,8,9,10)          179.9133         estimate D2E/DX2                !
 ! D40   D(23,8,9,15)           -0.0159         estimate D2E/DX2                !
 ! D41   D(8,9,10,7)             0.115          estimate D2E/DX2                !
 ! D42   D(8,9,10,11)         -179.9353         estimate D2E/DX2                !
 ! D43   D(15,9,10,7)         -179.9538         estimate D2E/DX2                !
 ! D44   D(15,9,10,11)          -0.0041         estimate D2E/DX2                !
 ! D45   D(8,9,15,14)          179.9107         estimate D2E/DX2                !
 ! D46   D(8,9,15,22)           -0.1009         estimate D2E/DX2                !
 ! D47   D(10,9,15,14)          -0.0189         estimate D2E/DX2                !
 ! D48   D(10,9,15,22)         179.9695         estimate D2E/DX2                !
 ! D49   D(7,10,11,12)          -0.106          estimate D2E/DX2                !
 ! D50   D(7,10,11,13)        -179.9865         estimate D2E/DX2                !
 ! D51   D(9,10,11,12)         179.9455         estimate D2E/DX2                !
 ! D52   D(9,10,11,13)           0.065          estimate D2E/DX2                !
 ! D53   D(10,11,13,14)         -0.1018         estimate D2E/DX2                !
 ! D54   D(10,11,13,20)        179.9569         estimate D2E/DX2                !
 ! D55   D(12,11,13,14)       -179.9786         estimate D2E/DX2                !
 ! D56   D(12,11,13,20)          0.0801         estimate D2E/DX2                !
 ! D57   D(11,13,14,15)          0.078          estimate D2E/DX2                !
 ! D58   D(11,13,14,21)        179.9999         estimate D2E/DX2                !
 ! D59   D(20,13,14,15)       -179.9793         estimate D2E/DX2                !
 ! D60   D(20,13,14,21)         -0.0574         estimate D2E/DX2                !
 ! D61   D(13,14,15,9)          -0.0166         estimate D2E/DX2                !
 ! D62   D(13,14,15,22)        179.9954         estimate D2E/DX2                !
 ! D63   D(21,14,15,9)        -179.9366         estimate D2E/DX2                !
 ! D64   D(21,14,15,22)          0.0754         estimate D2E/DX2                !
 --------------------------------------------------------------------------------
 Trust Radius=3.00D-01 FncErr=1.00D-07 GrdErr=1.00D-06
 Number of steps in this run=    142 maximum allowed number of steps=    144.
 GradGradGradGradGradGradGradGradGradGradGradGradGradGradGradGradGradGrad

 Leave Link  103 at Sun May 30 18:09:37 2021, MaxMem=    33554432 cpu:         0.0
 (Enter /opt/app/gaussian09/e01/g09/l202.exe)
                          Input orientation:                          
 ---------------------------------------------------------------------
 Center     Atomic      Atomic             Coordinates (Angstroms)
 Number     Number       Type             X           Y           Z
 ---------------------------------------------------------------------
      1          6           0       -3.284813   -3.197997   -0.012916
      2          6           0       -1.920190   -3.197997   -0.012916
      3          6           0       -1.187299   -1.966776   -0.012916
      4          6           0       -1.911296   -0.735029   -0.018434
      5          6           0       -3.343536   -0.776520   -0.019734
      6          6           0       -4.007319   -1.968813   -0.016363
      7          6           0        0.211602   -1.943887   -0.008020
      8          6           0       -1.210919    0.476138   -0.020155
      9          6           0        0.188022    0.499022   -0.014530
     10          6           0        0.911991   -0.732681   -0.007110
     11          6           0        2.344173   -0.691057    0.000000
     12          1           0        2.890043   -1.646584    0.006601
     13          6           0        3.007910    0.501298    0.001042
     14          6           0        2.285427    1.730413   -0.007130
     15          6           0        0.920784    1.730268   -0.014497
     16          1           0       -3.850685   -4.141275   -0.010512
     17          1           0       -1.350864   -4.139731   -0.009810
     18          1           0       -3.889349    0.179026   -0.024338
     19          1           0       -5.106717   -2.004978   -0.017794
     20          1           0        4.107316    0.537202    0.007202
     21          1           0        2.851507    2.673590   -0.006035
     22          1           0        0.351241    2.671885   -0.020769
     23          8           0       -1.935870    1.708743   -0.025699
     24          8           0        0.935987   -3.176824   -0.002410
 ---------------------------------------------------------------------
                    Distance matrix (angstroms):
                    1          2          3          4          5
     1  C    0.000000
     2  C    1.364623   0.000000
     3  C    2.432174   1.432841   0.000000
     4  C    2.820069   2.462990   1.428777   0.000000
     5  C    2.422199   2.808827   2.462948   1.432841   0.000000
     6  C    1.425805   2.422192   2.820023   2.432188   1.364618
     7  C    3.714530   2.473328   1.399097   2.442978   3.741910
     8  C    4.219047   3.741976   2.443039   1.399091   2.473299
     9  C    5.072330   4.255879   2.823415   2.435166   3.754855
    10  C    4.867338   3.754872   2.435168   2.823311   4.255772
    11  C    6.162013   4.946686   3.754853   4.255736   5.688385
    12  H    6.366797   5.054266   4.089942   4.887168   6.294062
    13  C    7.299544   6.162073   4.867377   5.072225   6.478743
    14  C    7.437529   6.478925   5.072383   4.867342   6.161988
    15  C    6.478800   5.688491   4.255837   3.754781   4.946558
    16  H    1.099996   2.148625   3.438325   3.919669   3.402773
    17  H    2.151054   1.100457   2.179105   3.450530   3.909224
    18  H    3.430726   3.909220   3.450460   2.179042   1.100455
    19  H    2.177763   3.402539   3.919607   3.438530   2.148935
    20  H    8.282251   7.091047   5.856898   6.151660   7.565830
    21  H    8.492939   7.566021   6.151829   5.856887   7.090980
    22  H    6.904815   6.294043   4.887161   4.089761   5.053996
    23  O    5.088802   4.906782   3.750995   2.443906   2.856237
    24  O    4.220866   2.856275   2.443905   3.750952   4.906738
                    6          7          8          9         10
     6  C    0.000000
     7  C    4.219003   0.000000
     8  C    3.714519   2.807175   0.000000
     9  C    4.867350   2.443031   1.399139   0.000000
    10  C    5.072250   1.399130   2.442982   1.428733   0.000000
    11  C    6.478764   2.473359   3.741848   2.462821   1.432804
    12  H    6.904923   2.694930   4.617852   3.450361   2.179013
    13  C    7.437418   3.714613   4.218957   2.819932   2.432210
    14  C    7.299521   4.219151   3.714540   2.432177   2.820134
    15  C    6.161932   3.741978   2.473263   1.432797   2.462976
    16  H    2.178109   4.618517   5.318737   6.151709   5.856757
    17  H    3.430697   2.695002   4.618002   4.887353   4.090050
    18  H    2.151091   4.617881   2.694862   4.089920   4.887164
    19  H    1.099994   5.318679   4.618786   5.856986   6.151723
    20  H    8.492819   4.618725   5.318656   3.919540   3.438446
    21  H    8.282240   5.318853   4.618690   3.438455   3.919746
    22  H    6.366564   4.617901   2.694745   2.178994   3.450463
    23  O    4.220830   4.237175   1.430000   2.444272   3.751161
    24  O    5.088788   1.430000   4.237175   3.751193   2.444266
                   11         12         13         14         15
    11  C    0.000000
    12  H    1.100477   0.000000
    13  C    1.364646   2.151121   0.000000
    14  C    2.422193   3.430723   1.425753   0.000000
    15  C    2.808747   3.909163   2.422128   1.364663   0.000000
    16  H    7.090866   7.187572   8.282146   8.492856   7.565841
    17  H    5.054379   4.919486   6.366960   6.905158   6.294227
    18  H    6.294000   7.020966   6.904831   6.366707   5.054090
    19  H    7.565875   8.004824   8.492876   8.282334   7.091040
    20  H    2.148801   2.500135   1.100009   2.177897   3.402626
    21  H    3.402686   4.320364   2.177927   1.100014   2.148865
    22  H    3.909167   5.009535   3.430716   2.151193   1.100482
    23  O    4.906982   5.877814   5.089165   4.221394   2.856757
    24  O    2.856927   2.481945   4.221547   5.089400   4.907131
                   16         17         18         19         20
    16  H    0.000000
    17  H    2.499822   0.000000
    18  H    4.320496   5.009569   0.000000
    19  H    2.478192   4.320147   2.500380   0.000000
    20  H    9.231373   7.187887   8.004745   9.558332   0.000000
    21  H    9.558336   8.005078   7.187651   9.231601   2.478182
    22  H    8.004713   7.021068   4.919041   7.187653   4.320388
    23  O    6.155441   5.877681   2.481152   4.883242   6.155785
    24  O    4.882874   2.481316   5.877591   6.155301   4.883791
                   21         22         23         24
    21  H    0.000000
    22  H    2.500310   0.000000
    23  O    4.883677   2.481641   0.000000
    24  O    6.156020   5.877897   5.667175   0.000000
 Stoichiometry    C14H8O2
 Framework group  C1[X(C14H8O2)]
 Deg. of freedom    66
 Full point group                 C1      NOp   1
 Largest Abelian subgroup         C1      NOp   1
 Largest concise Abelian subgroup C1      NOp   1
                         Standard orientation:                         
 ---------------------------------------------------------------------
 Center     Atomic      Atomic             Coordinates (Angstroms)
 Number     Number       Type             X           Y           Z
 ---------------------------------------------------------------------
      1          6           0        3.649750    0.712768    0.002205
      2          6           0        2.473360    1.404345   -0.002616
      3          6           0        1.217580    0.714381   -0.001911
      4          6           0        1.217472   -0.714396   -0.001576
      5          6           0        2.473182   -1.404478    0.002073
      6          6           0        3.649652   -0.713035    0.004600
      7          6           0        0.000032    1.403618   -0.001897
      8          6           0       -0.000112   -1.403558   -0.002531
      9          6           0       -1.217694   -0.714293   -0.001787
     10          6           0       -1.217587    0.714439   -0.000220
     11          6           0       -2.473324    1.404401    0.001941
     12          1           0       -2.459649    2.504791    0.004057
     13          6           0       -3.649793    0.712899    0.003828
     14          6           0       -3.649869   -0.712852    0.001497
     15          6           0       -2.473375   -1.404345   -0.001049
     16          1           0        4.615616    1.239162    0.004085
     17          1           0        2.459830    2.504718   -0.004041
     18          1           0        2.459445   -2.504847    0.001954
     19          1           0        4.615732   -1.239028    0.006956
     20          1           0       -4.615757    1.239140    0.006200
     21          1           0       -4.615868   -1.239040    0.003116
     22          1           0       -2.459594   -2.504739   -0.002789
     23          8           0        0.000167   -2.833558   -0.002215
     24          8           0        0.000409    2.833618   -0.002145
 ---------------------------------------------------------------------
 Rotational constants (GHZ):      1.0546773      0.4534727      0.3171224
 Leave Link  202 at Sun May 30 18:09:38 2021, MaxMem=    33554432 cpu:         0.0
 (Enter /opt/app/gaussian09/e01/g09/l301.exe)
 Standard basis: 6-31G(d) (6D, 7F)
 Ernie: Thresh=  0.10000D-02 Tol=  0.10000D-05 Strict=F.
 There are   256 symmetry adapted cartesian basis functions of A   symmetry.
 There are   256 symmetry adapted basis functions of A   symmetry.
   256 basis functions,   480 primitive gaussians,   256 cartesian basis functions
    54 alpha electrons       54 beta electrons
       nuclear repulsion energy       972.5734215390 Hartrees.
 IExCor=  402 DFT=T Ex+Corr=B3LYP ExCW=0 ScaHFX=  0.200000
 ScaDFX=  0.800000  0.720000  1.000000  0.810000 ScalE2=  1.000000  1.000000
 IRadAn=      5 IRanWt=     -1 IRanGd=            0 ICorTp=0 IEmpDi=  4
 NAtoms=   24 NActive=   24 NUniq=   24 SFac= 1.00D+00 NAtFMM=   60 NAOKFM=F Big=F
 Integral buffers will be    131072 words long.
 Raffenetti 2 integral format.
 Two-electron integral symmetry is turned on.
 Leave Link  301 at Sun May 30 18:09:39 2021, MaxMem=    33554432 cpu:         0.0
 (Enter /opt/app/gaussian09/e01/g09/l302.exe)
 NPDir=0 NMtPBC=     1 NCelOv=     1 NCel=       1 NClECP=     1 NCelD=      1
         NCelK=      1 NCelE2=     1 NClLst=     1 CellRange=     0.0.
 One-electron integrals computed using PRISM.
 NBasis=   256 RedAO= T EigKep=  1.89D-04  NBF=   256
 NBsUse=   256 1.00D-06 EigRej= -1.00D+00 NBFU=   256
 Precomputing XC quadrature grid using
 IXCGrd= 4 IRadAn=           5 IRanWt=          -1 IRanGd=           0 AccXCQ= 0.00D+00.
 Generated NRdTot=       0 NPtTot=           0 NUsed=           0 NTot=          32
 NSgBfM=   255   255   255   255   255 MxSgAt=    24 MxSgA2=    24.
 Leave Link  302 at Sun May 30 18:09:41 2021, MaxMem=    33554432 cpu:         1.2
 (Enter /opt/app/gaussian09/e01/g09/l303.exe)
 DipDrv:  MaxL=1.
 Leave Link  303 at Sun May 30 18:09:42 2021, MaxMem=    33554432 cpu:         0.1
 (Enter /opt/app/gaussian09/e01/g09/l401.exe)
 ExpMin= 1.61D-01 ExpMax= 5.48D+03 ExpMxC= 8.25D+02 IAcc=3 IRadAn=         5 AccDes= 0.00D+00
 Harris functional with IExCor=  402 and IRadAn=       5 diagonalized for initial guess.
 HarFok:  IExCor=  402 AccDes= 0.00D+00 IRadAn=         5 IDoV= 1 UseB2=F ITyADJ=14
 ICtDFT=  3500011 ScaDFX=  1.000000  1.000000  1.000000  1.000000
 FoFCou: FMM=F IPFlag=           0 FMFlag=      100000 FMFlg1=           0
         NFxFlg=           0 DoJE=T BraDBF=F KetDBF=T FulRan=T
         wScrn=  0.000000 ICntrl=     500 IOpCl=  0 I1Cent=   200000004 NGrid=           0
         NMat0=    1 NMatS0=      1 NMatT0=    0 NMatD0=    1 NMtDS0=    0 NMtDT0=    0
 Petite list used in FoFCou.
 Harris En= -688.679046483991    
 JPrj=0 DoOrth=F DoCkMO=F.
 Leave Link  401 at Sun May 30 18:10:00 2021, MaxMem=    33554432 cpu:        16.2
 (Enter /opt/app/gaussian09/e01/g09/l502.exe)
 Closed shell SCF:
 Using DIIS extrapolation, IDIIS=  1040.
 Integral symmetry usage will be decided dynamically.
 IVT=      218614 IEndB=      218614 NGot=    33554432 MDV=    33418251
 LenX=    33418251 LenY=    33352274
 Requested convergence on RMS density matrix=1.00D-08 within 128 cycles.
 Requested convergence on MAX density matrix=1.00D-06.
 Requested convergence on             energy=1.00D-06.
 No special actions if energy rises.
 Fock matrices will be formed incrementally for  20 cycles.
 Integral accuracy reduced to 1.0D-05 until final iterations.

 Cycle   1  Pass 0  IDiag  1:
 FoFJK:  IHMeth= 1 ICntrl=       0 DoSepK=F KAlg= 0 I1Cent=   0 FoldK=F
 IRaf= 830000000 NMat=   1 IRICut=       1 DoRegI=T DoRafI=F ISym2E= 0.
 FoFCou: FMM=F IPFlag=           0 FMFlag=      100000 FMFlg1=           0
         NFxFlg=           0 DoJE=F BraDBF=F KetDBF=F FulRan=T
         wScrn=  0.000000 ICntrl=       0 IOpCl=  0 I1Cent=           0 NGrid=           0
         NMat0=    1 NMatS0=      1 NMatT0=    0 NMatD0=    1 NMtDS0=    0 NMtDT0=    0
 Symmetry not used in FoFCou.
 E= -688.409472904494    
 DIIS: error= 4.21D-02 at cycle   1 NSaved=   1.
 NSaved= 1 IEnMin= 1 EnMin= -688.409472904494     IErMin= 1 ErrMin= 4.21D-02
 ErrMax= 4.21D-02  0.00D+00 EMaxC= 1.00D-01 BMatC= 2.98D-01 BMatP= 2.98D-01
 IDIUse=3 WtCom= 5.79D-01 WtEn= 4.21D-01
 Coeff-Com:  0.100D+01
 Coeff-En:   0.100D+01
 Coeff:      0.100D+01
 Gap=     0.027 Goal=   None    Shift=    0.000
 GapD=    0.027 DampG=0.250 DampE=0.500 DampFc=0.2500 IDamp=-1.
 Damping current iteration by 2.50D-01
 RMSDP=7.84D-03 MaxDP=2.22D-01              OVMax= 3.30D-01

 Cycle   2  Pass 0  IDiag  1:
 RMSU=  1.95D-03    CP:  9.91D-01
 E= -688.495620550065     Delta-E=       -0.086147645570 Rises=F Damp=T
 DIIS: error= 2.49D-02 at cycle   2 NSaved=   2.
 NSaved= 2 IEnMin= 2 EnMin= -688.495620550065     IErMin= 2 ErrMin= 2.49D-02
 ErrMax= 2.49D-02  0.00D+00 EMaxC= 1.00D-01 BMatC= 7.26D-02 BMatP= 2.98D-01
 IDIUse=3 WtCom= 7.51D-01 WtEn= 2.49D-01
 Coeff-Com: -0.326D+00 0.133D+01
 Coeff-En:   0.000D+00 0.100D+01
 Coeff:     -0.245D+00 0.125D+01
 Gap=     0.109 Goal=   None    Shift=    0.000
 RMSDP=3.21D-03 MaxDP=8.52D-02 DE=-8.61D-02 OVMax= 3.76D-01

 Cycle   3  Pass 0  IDiag  1:
 RMSU=  2.94D-03    CP:  9.36D-01  1.13D+00
 E= -688.583270937910     Delta-E=       -0.087650387845 Rises=F Damp=F
 DIIS: error= 2.82D-02 at cycle   3 NSaved=   3.
 NSaved= 3 IEnMin= 3 EnMin= -688.583270937910     IErMin= 2 ErrMin= 2.49D-02
 ErrMax= 2.82D-02  0.00D+00 EMaxC= 1.00D-01 BMatC= 1.08D-01 BMatP= 7.26D-02
 IDIUse=2 WtCom= 0.00D+00 WtEn= 1.00D+00
 Coeff-En:   0.000D+00 0.195D+00 0.805D+00
 Coeff:      0.000D+00 0.195D+00 0.805D+00
 Gap=     0.167 Goal=   None    Shift=    0.000
 RMSDP=5.37D-03 MaxDP=1.95D-01 DE=-8.77D-02 OVMax= 4.41D-01

 Cycle   4  Pass 0  IDiag  1:
 RMSU=  2.15D-03    CP:  9.64D-01  3.00D+00 -1.96D-02
 E= -688.014462643617     Delta-E=        0.568808294293 Rises=F Damp=F
 DIIS: error= 8.63D-02 at cycle   4 NSaved=   4.
 NSaved= 4 IEnMin= 3 EnMin= -688.583270937910     IErMin= 2 ErrMin= 2.49D-02
 ErrMax= 8.63D-02  0.00D+00 EMaxC= 1.00D-01 BMatC= 7.46D-01 BMatP= 7.26D-02
 IDIUse=2 WtCom= 0.00D+00 WtEn= 1.00D+00
 Coeff-En:   0.000D+00 0.000D+00 0.790D+00 0.210D+00
 Coeff:      0.000D+00 0.000D+00 0.790D+00 0.210D+00
 Gap=     0.086 Goal=   None    Shift=    0.000
 RMSDP=3.36D-03 MaxDP=1.10D-01 DE= 5.69D-01 OVMax= 2.23D-01

 Cycle   5  Pass 0  IDiag  1:
 RMSU=  5.28D-04    CP:  9.50D-01  1.69D+00  5.43D-01  6.53D-01
 E= -688.643504991562     Delta-E=       -0.629042347945 Rises=F Damp=F
 DIIS: error= 2.08D-02 at cycle   5 NSaved=   5.
 NSaved= 5 IEnMin= 5 EnMin= -688.643504991562     IErMin= 5 ErrMin= 2.08D-02
 ErrMax= 2.08D-02  0.00D+00 EMaxC= 1.00D-01 BMatC= 4.94D-02 BMatP= 7.26D-02
 IDIUse=3 WtCom= 7.92D-01 WtEn= 2.08D-01
 Coeff-Com: -0.120D+00 0.202D+00 0.333D+00-0.880D-01 0.673D+00
 Coeff-En:   0.000D+00 0.000D+00 0.358D+00 0.000D+00 0.642D+00
 Coeff:     -0.951D-01 0.160D+00 0.338D+00-0.698D-01 0.667D+00
 Gap=     0.112 Goal=   None    Shift=    0.000
 RMSDP=1.02D-03 MaxDP=3.73D-02 DE=-6.29D-01 OVMax= 8.63D-02

 Cycle   6  Pass 0  IDiag  1:
 RMSU=  1.20D-04    CP:  9.44D-01  1.42D+00  7.32D-01  3.58D-01  7.82D-01
 E= -688.690997236921     Delta-E=       -0.047492245359 Rises=F Damp=F
 DIIS: error= 1.26D-03 at cycle   6 NSaved=   6.
 NSaved= 6 IEnMin= 6 EnMin= -688.690997236921     IErMin= 6 ErrMin= 1.26D-03
 ErrMax= 1.26D-03  0.00D+00 EMaxC= 1.00D-01 BMatC= 2.08D-04 BMatP= 4.94D-02
 IDIUse=3 WtCom= 9.87D-01 WtEn= 1.26D-02
 Coeff-Com: -0.326D-01 0.459D-01 0.113D+00-0.304D-01 0.273D+00 0.632D+00
 Coeff-En:   0.000D+00 0.000D+00 0.000D+00 0.000D+00 0.000D+00 0.100D+01
 Coeff:     -0.322D-01 0.453D-01 0.111D+00-0.300D-01 0.270D+00 0.636D+00
 Gap=     0.112 Goal=   None    Shift=    0.000
 RMSDP=9.64D-05 MaxDP=3.23D-03 DE=-4.75D-02 OVMax= 9.72D-03

 Cycle   7  Pass 0  IDiag  1:
 RMSU=  5.10D-05    CP:  9.44D-01  1.44D+00  7.26D-01  3.80D-01  7.74D-01
                    CP:  7.13D-01
 E= -688.691167923548     Delta-E=       -0.000170686628 Rises=F Damp=F
 DIIS: error= 5.07D-04 at cycle   7 NSaved=   7.
 NSaved= 7 IEnMin= 7 EnMin= -688.691167923548     IErMin= 7 ErrMin= 5.07D-04
 ErrMax= 5.07D-04  0.00D+00 EMaxC= 1.00D-01 BMatC= 3.21D-05 BMatP= 2.08D-04
 IDIUse=3 WtCom= 9.95D-01 WtEn= 5.07D-03
 Coeff-Com: -0.294D-02 0.239D-02 0.172D-01-0.564D-02 0.511D-01 0.342D+00
 Coeff-Com:  0.596D+00
 Coeff-En:   0.000D+00 0.000D+00 0.000D+00 0.000D+00 0.000D+00 0.156D+00
 Coeff-En:   0.844D+00
 Coeff:     -0.293D-02 0.237D-02 0.171D-01-0.561D-02 0.509D-01 0.341D+00
 Coeff:      0.598D+00
 Gap=     0.113 Goal=   None    Shift=    0.000
 RMSDP=3.01D-05 MaxDP=9.18D-04 DE=-1.71D-04 OVMax= 3.15D-03

 Cycle   8  Pass 0  IDiag  1:
 RMSU=  1.13D-05    CP:  9.44D-01  1.44D+00  7.28D-01  3.78D-01  7.87D-01
                    CP:  7.68D-01  5.65D-01
 E= -688.691196152919     Delta-E=       -0.000028229371 Rises=F Damp=F
 DIIS: error= 1.35D-04 at cycle   8 NSaved=   8.
 NSaved= 8 IEnMin= 8 EnMin= -688.691196152919     IErMin= 8 ErrMin= 1.35D-04
 ErrMax= 1.35D-04  0.00D+00 EMaxC= 1.00D-01 BMatC= 2.17D-06 BMatP= 3.21D-05
 IDIUse=3 WtCom= 9.99D-01 WtEn= 1.35D-03
 Coeff-Com:  0.935D-03-0.242D-02 0.397D-02-0.125D-02 0.139D-01 0.167D+00
 Coeff-Com:  0.335D+00 0.483D+00
 Coeff-En:   0.000D+00 0.000D+00 0.000D+00 0.000D+00 0.000D+00 0.000D+00
 Coeff-En:   0.000D+00 0.100D+01
 Coeff:      0.934D-03-0.241D-02 0.397D-02-0.125D-02 0.139D-01 0.167D+00
 Coeff:      0.334D+00 0.483D+00
 Gap=     0.113 Goal=   None    Shift=    0.000
 RMSDP=7.98D-06 MaxDP=2.05D-04 DE=-2.82D-05 OVMax= 7.37D-04

 Initial convergence to 1.0D-05 achieved.  Increase integral accuracy.
 Cycle   9  Pass 1  IDiag  1:
 E= -688.691191648432     Delta-E=        0.000004504487 Rises=F Damp=F
 DIIS: error= 9.34D-05 at cycle   1 NSaved=   1.
 NSaved= 1 IEnMin= 1 EnMin= -688.691191648432     IErMin= 1 ErrMin= 9.34D-05
 ErrMax= 9.34D-05  0.00D+00 EMaxC= 1.00D-01 BMatC= 4.95D-07 BMatP= 4.95D-07
 IDIUse=1 WtCom= 1.00D+00 WtEn= 0.00D+00
 Coeff-Com:  0.100D+01
 Coeff:      0.100D+01
 Gap=     0.113 Goal=   None    Shift=    0.000
 RMSDP=7.98D-06 MaxDP=2.05D-04 DE= 4.50D-06 OVMax= 1.01D-03

 Cycle  10  Pass 1  IDiag  1:
 RMSU=  2.87D-05    CP:  1.00D+00
 E= -688.691190349645     Delta-E=        0.000001298787 Rises=F Damp=F
 DIIS: error= 1.34D-04 at cycle   2 NSaved=   2.
 NSaved= 2 IEnMin= 1 EnMin= -688.691191648432     IErMin= 1 ErrMin= 9.34D-05
 ErrMax= 1.34D-04  0.00D+00 EMaxC= 1.00D-01 BMatC= 1.56D-06 BMatP= 4.95D-07
 IDIUse=3 WtCom= 4.64D-01 WtEn= 5.36D-01
 Coeff-Com:  0.662D+00 0.338D+00
 Coeff-En:   0.767D+00 0.233D+00
 Coeff:      0.718D+00 0.282D+00
 Gap=     0.113 Goal=   None    Shift=    0.000
 RMSDP=6.15D-06 MaxDP=3.00D-04 DE= 1.30D-06 OVMax= 7.62D-04

 Cycle  11  Pass 1  IDiag  1:
 RMSU=  5.86D-06    CP:  1.00D+00  9.40D-01
 E= -688.691192043336     Delta-E=       -0.000001693691 Rises=F Damp=F
 DIIS: error= 1.89D-05 at cycle   3 NSaved=   3.
 NSaved= 3 IEnMin= 3 EnMin= -688.691192043336     IErMin= 3 ErrMin= 1.89D-05
 ErrMax= 1.89D-05  0.00D+00 EMaxC= 1.00D-01 BMatC= 4.05D-08 BMatP= 4.95D-07
 IDIUse=1 WtCom= 1.00D+00 WtEn= 0.00D+00
 Coeff-Com:  0.191D+00 0.108D+00 0.702D+00
 Coeff:      0.191D+00 0.108D+00 0.702D+00
 Gap=     0.113 Goal=   None    Shift=    0.000
 RMSDP=2.36D-06 MaxDP=1.34D-04 DE=-1.69D-06 OVMax= 2.65D-04

 Cycle  12  Pass 1  IDiag  1:
 RMSU=  2.30D-06    CP:  1.00D+00  9.43D-01  9.22D-01
 E= -688.691191940300     Delta-E=        0.000000103036 Rises=F Damp=F
 DIIS: error= 3.57D-05 at cycle   4 NSaved=   4.
 NSaved= 4 IEnMin= 3 EnMin= -688.691192043336     IErMin= 3 ErrMin= 1.89D-05
 ErrMax= 3.57D-05  0.00D+00 EMaxC= 1.00D-01 BMatC= 1.44D-07 BMatP= 4.05D-08
 IDIUse=1 WtCom= 1.00D+00 WtEn= 0.00D+00
 Coeff-Com:  0.132D-01 0.161D-01 0.641D+00 0.329D+00
 Coeff:      0.132D-01 0.161D-01 0.641D+00 0.329D+00
 Gap=     0.113 Goal=   None    Shift=    0.000
 RMSDP=1.69D-06 MaxDP=9.21D-05 DE= 1.03D-07 OVMax= 2.17D-04

 Cycle  13  Pass 1  IDiag  1:
 RMSU=  4.01D-07    CP:  1.00D+00  9.48D-01  9.57D-01  2.97D-01
 E= -688.691192076871     Delta-E=       -0.000000136571 Rises=F Damp=F
 DIIS: error= 7.72D-06 at cycle   5 NSaved=   5.
 NSaved= 5 IEnMin= 5 EnMin= -688.691192076871     IErMin= 5 ErrMin= 7.72D-06
 ErrMax= 7.72D-06  0.00D+00 EMaxC= 1.00D-01 BMatC= 4.58D-09 BMatP= 4.05D-08
 IDIUse=1 WtCom= 1.00D+00 WtEn= 0.00D+00
 Coeff-Com:  0.259D-02 0.747D-02 0.442D+00 0.240D+00 0.309D+00
 Coeff:      0.259D-02 0.747D-02 0.442D+00 0.240D+00 0.309D+00
 Gap=     0.113 Goal=   None    Shift=    0.000
 RMSDP=3.80D-07 MaxDP=2.60D-05 DE=-1.37D-07 OVMax= 5.25D-05

 Cycle  14  Pass 1  IDiag  1:
 RMSU=  1.78D-07    CP:  1.00D+00  9.48D-01  9.63D-01  3.32D-01  1.94D-01
 E= -688.691192080485     Delta-E=       -0.000000003614 Rises=F Damp=F
 DIIS: error= 2.67D-06 at cycle   6 NSaved=   6.
 NSaved= 6 IEnMin= 6 EnMin= -688.691192080485     IErMin= 6 ErrMin= 2.67D-06
 ErrMax= 2.67D-06  0.00D+00 EMaxC= 1.00D-01 BMatC= 7.52D-10 BMatP= 4.58D-09
 IDIUse=1 WtCom= 1.00D+00 WtEn= 0.00D+00
 Coeff-Com: -0.761D-03 0.231D-02 0.213D+00 0.120D+00 0.260D+00 0.405D+00
 Coeff:     -0.761D-03 0.231D-02 0.213D+00 0.120D+00 0.260D+00 0.405D+00
 Gap=     0.113 Goal=   None    Shift=    0.000
 RMSDP=1.22D-07 MaxDP=6.79D-06 DE=-3.61D-09 OVMax= 1.37D-05

 Cycle  15  Pass 1  IDiag  1:
 RMSU=  3.81D-08    CP:  1.00D+00  9.48D-01  9.66D-01  3.33D-01  3.51D-01
                    CP:  4.63D-01
 E= -688.691192081182     Delta-E=       -0.000000000697 Rises=F Damp=F
 DIIS: error= 2.31D-07 at cycle   7 NSaved=   7.
 NSaved= 7 IEnMin= 7 EnMin= -688.691192081182     IErMin= 7 ErrMin= 2.31D-07
 ErrMax= 2.31D-07  0.00D+00 EMaxC= 1.00D-01 BMatC= 1.36D-11 BMatP= 7.52D-10
 IDIUse=1 WtCom= 1.00D+00 WtEn= 0.00D+00
 Coeff-Com: -0.640D-03 0.905D-03 0.849D-01 0.481D-01 0.121D+00 0.221D+00
 Coeff-Com:  0.525D+00
 Coeff:     -0.640D-03 0.905D-03 0.849D-01 0.481D-01 0.121D+00 0.221D+00
 Coeff:      0.525D+00
 Gap=     0.113 Goal=   None    Shift=    0.000
 RMSDP=1.93D-08 MaxDP=7.70D-07 DE=-6.97D-10 OVMax= 7.29D-07

 Cycle  16  Pass 1  IDiag  1:
 RMSU=  1.48D-08    CP:  1.00D+00  9.48D-01  9.65D-01  3.33D-01  3.54D-01
                    CP:  4.80D-01  7.19D-01
 E= -688.691192081208     Delta-E=       -0.000000000027 Rises=F Damp=F
 DIIS: error= 5.17D-08 at cycle   8 NSaved=   8.
 NSaved= 8 IEnMin= 8 EnMin= -688.691192081208     IErMin= 8 ErrMin= 5.17D-08
 ErrMax= 5.17D-08  0.00D+00 EMaxC= 1.00D-01 BMatC= 3.85D-13 BMatP= 1.36D-11
 IDIUse=1 WtCom= 1.00D+00 WtEn= 0.00D+00
 Coeff-Com: -0.143D-03 0.273D-03 0.128D-01 0.681D-02 0.221D-01 0.494D-01
 Coeff-Com:  0.124D+00 0.785D+00
 Coeff:     -0.143D-03 0.273D-03 0.128D-01 0.681D-02 0.221D-01 0.494D-01
 Coeff:      0.124D+00 0.785D+00
 Gap=     0.113 Goal=   None    Shift=    0.000
 RMSDP=4.53D-09 MaxDP=9.23D-08 DE=-2.66D-11 OVMax= 3.18D-07

 SCF Done:  E(RB3LYP) =  -688.691192081     A.U. after   16 cycles
            NFock= 16  Conv=0.45D-08     -V/T= 2.0102
 KE= 6.817466828903D+02 PE=-3.545787906164D+03 EE= 1.202776609653D+03
 Leave Link  502 at Sun May 30 18:15:52 2021, MaxMem=    33554432 cpu:       347.8
 (Enter /opt/app/gaussian09/e01/g09/l601.exe)
 Copying SCF densities to generalized density rwf, IOpCl= 0 IROHF=0.

 **********************************************************************

            Population analysis using the SCF density.

 **********************************************************************

 Orbital symmetries:
       Occupied  (A) (A) (A) (A) (A) (A) (A) (A) (A) (A) (A) (A)
                 (A) (A) (A) (A) (A) (A) (A) (A) (A) (A) (A) (A)
                 (A) (A) (A) (A) (A) (A) (A) (A) (A) (A) (A) (A)
                 (A) (A) (A) (A) (A) (A) (A) (A) (A) (A) (A) (A)
                 (A) (A) (A) (A) (A) (A)
       Virtual   (A) (A) (A) (A) (A) (A) (A) (A) (A) (A) (A) (A)
                 (A) (A) (A) (A) (A) (A) (A) (A) (A) (A) (A) (A)
                 (A) (A) (A) (A) (A) (A) (A) (A) (A) (A) (A) (A)
                 (A) (A) (A) (A) (A) (A) (A) (A) (A) (A) (A) (A)
                 (A) (A) (A) (A) (A) (A) (A) (A) (A) (A) (A) (A)
                 (A) (A) (A) (A) (A) (A) (A) (A) (A) (A) (A) (A)
                 (A) (A) (A) (A) (A) (A) (A) (A) (A) (A) (A) (A)
                 (A) (A) (A) (A) (A) (A) (A) (A) (A) (A) (A) (A)
                 (A) (A) (A) (A) (A) (A) (A) (A) (A) (A) (A) (A)
                 (A) (A) (A) (A) (A) (A) (A) (A) (A) (A) (A) (A)
                 (A) (A) (A) (A) (A) (A) (A) (A) (A) (A) (A) (A)
                 (A) (A) (A) (A) (A) (A) (A) (A) (A) (A) (A) (A)
                 (A) (A) (A) (A) (A) (A) (A) (A) (A) (A) (A) (A)
                 (A) (A) (A) (A) (A) (A) (A) (A) (A) (A) (A) (A)
                 (A) (A) (A) (A) (A) (A) (A) (A) (A) (A) (A) (A)
                 (A) (A) (A) (A) (A) (A) (A) (A) (A) (A) (A) (A)
                 (A) (A) (A) (A) (A) (A) (A) (A) (A) (A)
 The electronic state is 1-A.
 Alpha  occ. eigenvalues --  -19.14105 -19.14104 -10.28253 -10.28252 -10.22756
 Alpha  occ. eigenvalues --  -10.22754 -10.22712 -10.22710 -10.22103 -10.22101
 Alpha  occ. eigenvalues --  -10.22060 -10.22057 -10.21763 -10.21763 -10.21761
 Alpha  occ. eigenvalues --  -10.21760  -0.96409  -0.95004  -0.88620  -0.87671
 Alpha  occ. eigenvalues --   -0.82474  -0.78116  -0.77506  -0.76886  -0.71387
 Alpha  occ. eigenvalues --   -0.66858  -0.64740  -0.61314  -0.58247  -0.55926
 Alpha  occ. eigenvalues --   -0.55278  -0.49668  -0.49119  -0.48788  -0.47470
 Alpha  occ. eigenvalues --   -0.44395  -0.44291  -0.44102  -0.44063  -0.40466
 Alpha  occ. eigenvalues --   -0.40215  -0.39886  -0.38732  -0.36905  -0.36587
 Alpha  occ. eigenvalues --   -0.36367  -0.34213  -0.34009  -0.27770  -0.27124
 Alpha  occ. eigenvalues --   -0.26358  -0.25975  -0.25535  -0.25455
 Alpha virt. eigenvalues --   -0.14199  -0.06993  -0.03674  -0.01673   0.04551
 Alpha virt. eigenvalues --    0.04813   0.08290   0.08926   0.12651   0.13212
 Alpha virt. eigenvalues --    0.13300   0.13914   0.16257   0.17393   0.17666
 Alpha virt. eigenvalues --    0.18257   0.20717   0.20927   0.23973   0.24860
 Alpha virt. eigenvalues --    0.24871   0.29539   0.30598   0.31451   0.31774
 Alpha virt. eigenvalues --    0.32791   0.35047   0.38337   0.42991   0.44525
 Alpha virt. eigenvalues --    0.46287   0.47986   0.48848   0.49049   0.50387
 Alpha virt. eigenvalues --    0.52259   0.52294   0.53743   0.54429   0.54582
 Alpha virt. eigenvalues --    0.54585   0.55747   0.56000   0.57909   0.58769
 Alpha virt. eigenvalues --    0.58797   0.58978   0.60134   0.60175   0.60667
 Alpha virt. eigenvalues --    0.60942   0.62131   0.62150   0.62749   0.66183
 Alpha virt. eigenvalues --    0.66440   0.70383   0.71105   0.72874   0.77952
 Alpha virt. eigenvalues --    0.79344   0.80068   0.80086   0.80363   0.81084
 Alpha virt. eigenvalues --    0.81255   0.81432   0.84843   0.86319   0.86597
 Alpha virt. eigenvalues --    0.87369   0.88502   0.90603   0.91148   0.91592
 Alpha virt. eigenvalues --    0.94123   0.96168   1.00494   1.01203   1.01993
 Alpha virt. eigenvalues --    1.02883   1.04831   1.05013   1.09167   1.09188
 Alpha virt. eigenvalues --    1.09281   1.14415   1.15434   1.16742   1.19014
 Alpha virt. eigenvalues --    1.21445   1.21479   1.21777   1.23666   1.25681
 Alpha virt. eigenvalues --    1.27907   1.32253   1.33381   1.34547   1.35761
 Alpha virt. eigenvalues --    1.36885   1.38049   1.41507   1.43402   1.44055
 Alpha virt. eigenvalues --    1.45047   1.45870   1.46623   1.47487   1.47610
 Alpha virt. eigenvalues --    1.48469   1.51396   1.58906   1.60374   1.64188
 Alpha virt. eigenvalues --    1.70595   1.71916   1.75985   1.76715   1.77643
 Alpha virt. eigenvalues --    1.77908   1.79511   1.81360   1.81861   1.84555
 Alpha virt. eigenvalues --    1.85877   1.86209   1.86324   1.88145   1.88550
 Alpha virt. eigenvalues --    1.89648   1.90393   1.90407   1.95679   1.97401
 Alpha virt. eigenvalues --    1.98403   1.99131   2.01556   2.02885   2.05192
 Alpha virt. eigenvalues --    2.09373   2.10509   2.11276   2.12514   2.12868
 Alpha virt. eigenvalues --    2.18355   2.18899   2.19922   2.23904   2.25188
 Alpha virt. eigenvalues --    2.26034   2.26881   2.28428   2.28969   2.30305
 Alpha virt. eigenvalues --    2.32318   2.37346   2.42525   2.45785   2.45811
 Alpha virt. eigenvalues --    2.45934   2.46770   2.56041   2.57596   2.63124
 Alpha virt. eigenvalues --    2.63145   2.64629   2.65675   2.66837   2.68786
 Alpha virt. eigenvalues --    2.69066   2.69449   2.72156   2.75482   2.81996
 Alpha virt. eigenvalues --    2.82518   2.83354   2.91661   2.93246   2.98869
 Alpha virt. eigenvalues --    2.99570   3.11916   3.15486   3.28913   3.44049
 Alpha virt. eigenvalues --    3.49165   3.98097   3.99162   4.05640   4.05971
 Alpha virt. eigenvalues --    4.09037   4.10773   4.12016   4.12907   4.27219
 Alpha virt. eigenvalues --    4.30618   4.32454   4.37199   4.49985   4.50838
 Alpha virt. eigenvalues --    4.63151   4.92162
          Condensed to atoms (all electrons):
               1          2          3          4          5          6
     1  C    4.952854   0.467372  -0.017709  -0.034840  -0.017941   0.483924
     2  C    0.467372   5.102669   0.442184  -0.060348  -0.061323  -0.017943
     3  C   -0.017709   0.442184   5.212076   0.388076  -0.060339  -0.034850
     4  C   -0.034840  -0.060348   0.388076   5.212076   0.442182  -0.017725
     5  C   -0.017941  -0.061323  -0.060339   0.442182   5.102690   0.467372
     6  C    0.483924  -0.017943  -0.034850  -0.017725   0.467372   4.952855
     7  C    0.010536  -0.075208   0.121354   0.048314   0.013250  -0.000977
     8  C   -0.000977   0.013250   0.048288   0.121382  -0.075203   0.010536
     9  C    0.000108  -0.001779  -0.078866  -0.003383   0.017758  -0.000434
    10  C   -0.000435   0.017761  -0.003372  -0.078884  -0.001779   0.000108
    11  C   -0.000002  -0.000383   0.017762  -0.001781   0.000018   0.000001
    12  H   -0.000000  -0.000016   0.000922  -0.000019   0.000000   0.000000
    13  C   -0.000000  -0.000002  -0.000434   0.000108   0.000001  -0.000000
    14  C   -0.000000   0.000001   0.000108  -0.000435  -0.000002  -0.000000
    15  C    0.000001   0.000018  -0.001781   0.017764  -0.000383  -0.000002
    16  H    0.359997  -0.034341   0.002528   0.000827   0.003633  -0.039247
    17  H   -0.042901   0.355884  -0.038888   0.004069   0.000294   0.004193
    18  H    0.004191   0.000294   0.004071  -0.038889   0.355883  -0.042899
    19  H   -0.039267   0.003636   0.000827   0.002527  -0.034334   0.360005
    20  H   -0.000000  -0.000000   0.000003  -0.000001  -0.000000   0.000000
    21  H    0.000000  -0.000000  -0.000001   0.000003  -0.000000  -0.000000
    22  H    0.000000   0.000000  -0.000019   0.000923  -0.000016  -0.000000
    23  O   -0.000004  -0.000034   0.004097  -0.102234  -0.000354   0.001087
    24  O    0.001087  -0.000348  -0.102241   0.004097  -0.000034  -0.000004
               7          8          9         10         11         12
     1  C    0.010536  -0.000977   0.000108  -0.000435  -0.000002  -0.000000
     2  C   -0.075208   0.013250  -0.001779   0.017761  -0.000383  -0.000016
     3  C    0.121354   0.048288  -0.078866  -0.003372   0.017762   0.000922
     4  C    0.048314   0.121382  -0.003383  -0.078884  -0.001781  -0.000019
     5  C    0.013250  -0.075203   0.017758  -0.001779   0.000018   0.000000
     6  C   -0.000977   0.010536  -0.000434   0.000108   0.000001   0.000000
     7  C    5.192433  -0.108809   0.048283   0.121256  -0.075224  -0.006787
     8  C   -0.108809   5.192322   0.121327   0.048296   0.013257  -0.000117
     9  C    0.048283   0.121327   5.211953   0.388205  -0.060334   0.004070
    10  C    0.121256   0.048296   0.388205   5.211956   0.442168  -0.038910
    11  C   -0.075224   0.013257  -0.060334   0.442168   5.102742   0.355882
    12  H   -0.006787  -0.000117   0.004070  -0.038910   0.355882   0.528827
    13  C    0.010535  -0.000977  -0.034856  -0.017714   0.467387  -0.042891
    14  C   -0.000978   0.010535  -0.017696  -0.034851  -0.017933   0.004192
    15  C    0.013256  -0.075208   0.442178  -0.060351  -0.061351   0.000294
    16  H   -0.000160   0.000013  -0.000001   0.000003  -0.000000  -0.000000
    17  H   -0.006794  -0.000116  -0.000019   0.000921  -0.000016  -0.000008
    18  H   -0.000116  -0.006798   0.000922  -0.000019   0.000000  -0.000000
    19  H    0.000013  -0.000160   0.000003  -0.000001  -0.000000  -0.000000
    20  H   -0.000160   0.000013   0.000827   0.002527  -0.034335  -0.004521
    21  H    0.000013  -0.000160   0.002526   0.000828   0.003634  -0.000143
    22  H   -0.000116  -0.006790  -0.038911   0.004069   0.000294   0.000013
    23  O   -0.000409   0.454655  -0.102178   0.004093  -0.000034   0.000000
    24  O    0.454671  -0.000409   0.004093  -0.102185  -0.000337   0.017144
              13         14         15         16         17         18
     1  C   -0.000000  -0.000000   0.000001   0.359997  -0.042901   0.004191
     2  C   -0.000002   0.000001   0.000018  -0.034341   0.355884   0.000294
     3  C   -0.000434   0.000108  -0.001781   0.002528  -0.038888   0.004071
     4  C    0.000108  -0.000435   0.017764   0.000827   0.004069  -0.038889
     5  C    0.000001  -0.000002  -0.000383   0.003633   0.000294   0.355883
     6  C   -0.000000  -0.000000  -0.000002  -0.039247   0.004193  -0.042899
     7  C    0.010535  -0.000978   0.013256  -0.000160  -0.006794  -0.000116
     8  C   -0.000977   0.010535  -0.075208   0.000013  -0.000116  -0.006798
     9  C   -0.034856  -0.017696   0.442178  -0.000001  -0.000019   0.000922
    10  C   -0.017714  -0.034851  -0.060351   0.000003   0.000921  -0.000019
    11  C    0.467387  -0.017933  -0.061351  -0.000000  -0.000016   0.000000
    12  H   -0.042891   0.004192   0.000294  -0.000000  -0.000008  -0.000000
    13  C    4.952792   0.483966  -0.017946  -0.000000  -0.000000   0.000000
    14  C    0.483966   4.952822   0.467355   0.000000   0.000000  -0.000000
    15  C   -0.017946   0.467355   5.102735  -0.000000   0.000000  -0.000016
    16  H   -0.000000   0.000000  -0.000000   0.563634  -0.004522  -0.000143
    17  H   -0.000000   0.000000   0.000000  -0.004522   0.528806   0.000013
    18  H    0.000000  -0.000000  -0.000016  -0.000143   0.000013   0.528793
    19  H    0.000000  -0.000000  -0.000000  -0.004366  -0.000143  -0.004519
    20  H    0.360002  -0.039259   0.003635  -0.000000  -0.000000  -0.000000
    21  H   -0.039253   0.359997  -0.034330   0.000000  -0.000000  -0.000000
    22  H    0.004191  -0.042889   0.355881  -0.000000  -0.000000  -0.000008
    23  O   -0.000004   0.001084  -0.000344   0.000000   0.000000   0.017164
    24  O    0.001084  -0.000004  -0.000034  -0.000004   0.017157   0.000000
              19         20         21         22         23         24
     1  C   -0.039267  -0.000000   0.000000   0.000000  -0.000004   0.001087
     2  C    0.003636  -0.000000  -0.000000   0.000000  -0.000034  -0.000348
     3  C    0.000827   0.000003  -0.000001  -0.000019   0.004097  -0.102241
     4  C    0.002527  -0.000001   0.000003   0.000923  -0.102234   0.004097
     5  C   -0.034334  -0.000000  -0.000000  -0.000016  -0.000354  -0.000034
     6  C    0.360005   0.000000  -0.000000  -0.000000   0.001087  -0.000004
     7  C    0.000013  -0.000160   0.000013  -0.000116  -0.000409   0.454671
     8  C   -0.000160   0.000013  -0.000160  -0.006790   0.454655  -0.000409
     9  C    0.000003   0.000827   0.002526  -0.038911  -0.102178   0.004093
    10  C   -0.000001   0.002527   0.000828   0.004069   0.004093  -0.102185
    11  C   -0.000000  -0.034335   0.003634   0.000294  -0.000034  -0.000337
    12  H   -0.000000  -0.004521  -0.000143   0.000013   0.000000   0.017144
    13  C    0.000000   0.360002  -0.039253   0.004191  -0.000004   0.001084
    14  C   -0.000000  -0.039259   0.359997  -0.042889   0.001084  -0.000004
    15  C   -0.000000   0.003635  -0.034330   0.355881  -0.000344  -0.000034
    16  H   -0.004366  -0.000000   0.000000  -0.000000   0.000000  -0.000004
    17  H   -0.000143  -0.000000  -0.000000  -0.000000   0.000000   0.017157
    18  H   -0.004519  -0.000000  -0.000000  -0.000008   0.017164   0.000000
    19  H    0.563635   0.000000  -0.000000  -0.000000  -0.000004   0.000000
    20  H    0.000000   0.563622  -0.004367  -0.000143   0.000000  -0.000004
    21  H   -0.000000  -0.004367   0.563605  -0.004518  -0.000004   0.000000
    22  H   -0.000000  -0.000143  -0.004518   0.528800   0.017155   0.000000
    23  O   -0.000004   0.000000  -0.000004   0.017155   8.254275   0.000000
    24  O    0.000000  -0.000004   0.000000   0.000000   0.000000   8.254266
 Mulliken charges:
               1
     1  C   -0.125993
     2  C   -0.151345
     3  C    0.096207
     4  C    0.096190
     5  C   -0.151373
     6  C   -0.125998
     7  C    0.241823
     8  C    0.241850
     9  C    0.096206
    10  C    0.096308
    11  C   -0.151415
    12  H    0.182067
    13  C   -0.125988
    14  C   -0.126014
    15  C   -0.151370
    16  H    0.152147
    17  H    0.182071
    18  H    0.182077
    19  H    0.152147
    20  H    0.152157
    21  H    0.152167
    22  H    0.182083
    23  O   -0.548008
    24  O   -0.547996
 Sum of Mulliken charges =  -0.00000
 Mulliken charges with hydrogens summed into heavy atoms:
               1
     1  C    0.026154
     2  C    0.030726
     3  C    0.096207
     4  C    0.096190
     5  C    0.030704
     6  C    0.026149
     7  C    0.241823
     8  C    0.241850
     9  C    0.096206
    10  C    0.096308
    11  C    0.030652
    13  C    0.026169
    14  C    0.026153
    15  C    0.030713
    23  O   -0.548008
    24  O   -0.547996
 Electronic spatial extent (au):  <R**2>=           3285.5009
 Charge=             -0.0000 electrons
 Dipole moment (field-independent basis, Debye):
    X=             -0.0018    Y=              0.0000    Z=              0.0090  Tot=              0.0092
 Quadrupole moment (field-independent basis, Debye-Ang):
   XX=            -60.7696   YY=           -103.8879   ZZ=            -91.8064
   XY=              0.0006   XZ=             -0.0013   YZ=              0.0044
 Traceless Quadrupole moment (field-independent basis, Debye-Ang):
   XX=             24.7184   YY=            -18.3999   ZZ=             -6.3184
   XY=              0.0006   XZ=             -0.0013   YZ=              0.0044
 Octapole moment (field-independent basis, Debye-Ang**2):
  XXX=             -0.0156  YYY=             -0.0016  ZZZ=             -0.0291  XYY=             -0.0058
  XXY=              0.0044  XXZ=              0.1827  XZZ=              0.0008  YZZ=              0.0003
  YYZ=              0.0678  XYZ=             -0.0531
 Hexadecapole moment (field-independent basis, Debye-Ang**3):
 XXXX=          -2518.1744 YYYY=          -1402.5141 ZZZZ=            -90.1448 XXXY=              0.0322
 XXXZ=              0.0454 YYYX=              0.0013 YYYZ=              0.0248 ZZZX=             -0.0029
 ZZZY=              0.0061 XXYY=           -620.9128 XXZZ=           -574.2051 YYZZ=           -224.3956
 XXYZ=              0.0290 YYXZ=             -0.0317 ZZXY=              0.0017
 N-N= 9.725734215390D+02 E-N=-3.545787923638D+03  KE= 6.817466828903D+02
 No NMR shielding tensors so no spin-rotation constants.
 Leave Link  601 at Sun May 30 18:15:53 2021, MaxMem=    33554432 cpu:         0.2
 (Enter /opt/app/gaussian09/e01/g09/l701.exe)
 Compute integral first derivatives.
 ... and contract with generalized density number  0.
 Leave Link  701 at Sun May 30 18:15:55 2021, MaxMem=    33554432 cpu:         0.2
 (Enter /opt/app/gaussian09/e01/g09/l702.exe)
 L702 exits ... SP integral derivatives will be done elsewhere.
 Leave Link  702 at Sun May 30 18:15:56 2021, MaxMem=    33554432 cpu:         0.0
 (Enter /opt/app/gaussian09/e01/g09/l703.exe)
 Compute integral first derivatives, UseDBF=F ICtDFT=           0.
 Integral derivatives from FoFJK, PRISM(SPDF).
 Calling FoFJK, ICntrl=      2127 FMM=F ISym2X=0 I1Cent= 0 IOpClX= 0 NMat=1 NMatS=1 NMatT=0.
 FoFJK:  IHMeth= 1 ICntrl=    2127 DoSepK=F KAlg= 0 I1Cent=   0 FoldK=F
 IRaf=         0 NMat=   1 IRICut=       1 DoRegI=T DoRafI=F ISym2E= 0.
 FoFCou: FMM=F IPFlag=           0 FMFlag=      100000 FMFlg1=         800
         NFxFlg=           0 DoJE=F BraDBF=F KetDBF=F FulRan=T
         wScrn=  0.000000 ICntrl=    2127 IOpCl=  0 I1Cent=           0 NGrid=           0
         NMat0=    1 NMatS0=      1 NMatT0=    0 NMatD0=    1 NMtDS0=    0 NMtDT0=    0
 Symmetry not used in FoFCou.
 Leave Link  703 at Sun May 30 18:17:12 2021, MaxMem=    33554432 cpu:        75.3
 (Enter /opt/app/gaussian09/e01/g09/l716.exe)
 Dipole        =-7.27734961D-04 1.60141057D-05 3.53482786D-03
 ***** Axes restored to original set *****
 -------------------------------------------------------------------
 Center     Atomic                   Forces (Hartrees/Bohr)
 Number     Number              X              Y              Z
 -------------------------------------------------------------------
      1        6          -0.028094333    0.005055479   -0.000099442
      2        6           0.030613185    0.000931077    0.000349187
      3        6          -0.058397870   -0.007234600   -0.000409592
      4        6          -0.034753153   -0.047530364    0.000232148
      5        6           0.015683148    0.026305628   -0.000214684
      6        6          -0.009273238   -0.027102996   -0.000024786
      7        6           0.091799713   -0.156275974    0.000728389
      8        6          -0.091884922    0.156217261   -0.000648944
      9        6           0.058314165    0.007282489    0.000247681
     10        6           0.034762608    0.047466550   -0.000087119
     11        6          -0.015671574   -0.026327243    0.000176101
     12        1          -0.007604334    0.008198297   -0.000132199
     13        6           0.009286102    0.027022918   -0.000148138
     14        6           0.028098265   -0.005040968    0.000286780
     15        6          -0.030589889   -0.000899115   -0.000223229
     16        1           0.006109664    0.006878595   -0.000054122
     17        1          -0.003449327    0.010633552   -0.000047308
     18        1           0.007602016   -0.008190014    0.000094599
     19        1           0.008976306    0.002062896    0.000059527
     20        1          -0.008988061   -0.002029727   -0.000033022
     21        1          -0.006147305   -0.006870259   -0.000060550
     22        1           0.003471261   -0.010635003    0.000085433
     23        8           0.070666881   -0.120063410    0.000487777
     24        8          -0.070529306    0.120144930   -0.000564488
 -------------------------------------------------------------------
 Cartesian Forces:  Max     0.156275974 RMS     0.041869271
 Leave Link  716 at Sun May 30 18:17:13 2021, MaxMem=    33554432 cpu:         0.0
 (Enter /opt/app/gaussian09/e01/g09/l103.exe)

 GradGradGradGradGradGradGradGradGradGradGradGradGradGradGradGradGradGrad
 Berny optimization.
 FormGI is forming the generalized inverse of G from B-inverse, IUseBI=4.
 Internal  Forces:  Max     0.139317992 RMS     0.019445304
 Search for a local minimum.
 Step number   1 out of a maximum of  142
 All quantities printed in internal units (Hartrees-Bohrs-Radians)
 RMS Force = .19445D-01 SwitMx=.10000D-02 MixMth= 1
 Mixed Optimization -- RFO/linear search
 Second derivative matrix not updated -- first step.
 ITU=  0
     Eigenvalues ---    0.01753   0.01761   0.01770   0.01819   0.01820
     Eigenvalues ---    0.01905   0.01979   0.01979   0.02000   0.02009
     Eigenvalues ---    0.02100   0.02100   0.02100   0.02119   0.02119
     Eigenvalues ---    0.02155   0.02155   0.02224   0.02226   0.02348
     Eigenvalues ---    0.02351   0.16000   0.16000   0.16000   0.16000
     Eigenvalues ---    0.16000   0.16000   0.16000   0.16000   0.22000
     Eigenvalues ---    0.22000   0.22534   0.22571   0.24474   0.24512
     Eigenvalues ---    0.25000   0.25000   0.25000   0.25000   0.25000
     Eigenvalues ---    0.33629   0.33629   0.33632   0.33632   0.33681
     Eigenvalues ---    0.33681   0.33683   0.33683   0.35786   0.38250
     Eigenvalues ---    0.38557   0.38614   0.40222   0.40749   0.40989
     Eigenvalues ---    0.40989   0.41161   0.41414   0.42102   0.44931
     Eigenvalues ---    0.45767   0.45768   0.49848   0.49859   0.51296
     Eigenvalues ---    0.51336
 RFO step:  Lambda=-9.73350807D-02 EMin= 1.75341456D-02
 Linear search not attempted -- first point.
 Maximum step size (   0.300) exceeded in Quadratic search.
    -- Step size scaled by   0.687
 Iteration  1 RMS(Cart)=  0.02462531 RMS(Int)=  0.00004217
 Iteration  2 RMS(Cart)=  0.00006266 RMS(Int)=  0.00000765
 Iteration  3 RMS(Cart)=  0.00000000 RMS(Int)=  0.00000765
 ITry= 1 IFail=0 DXMaxC= 1.49D-01 DCOld= 1.00D+10 DXMaxT= 3.00D-01 DXLimC= 3.00D+00 Rises=F
 Variable       Old X    -DE/DX   Delta X   Delta X   Delta X     New X
                                 (Linear)    (Quad)   (Total)
    R1        2.57876   0.01599   0.00000   0.01823   0.01822   2.59698
    R2        2.69438  -0.01188   0.00000  -0.01488  -0.01490   2.67948
    R3        2.07869  -0.00904   0.00000  -0.01431  -0.01431   2.06438
    R4        2.70768  -0.01709   0.00000  -0.02385  -0.02384   2.68384
    R5        2.07956  -0.01088   0.00000  -0.01725  -0.01725   2.06231
    R6        2.70000  -0.00812   0.00000  -0.01198  -0.01197   2.68803
    R7        2.64391   0.04314   0.00000   0.05341   0.05341   2.69732
    R8        2.70768  -0.01709   0.00000  -0.02384  -0.02383   2.68385
    R9        2.64390   0.04314   0.00000   0.05342   0.05342   2.69732
   R10        2.57875   0.01598   0.00000   0.01821   0.01820   2.59696
   R11        2.07956  -0.01088   0.00000  -0.01725  -0.01725   2.06231
   R12        2.07869  -0.00904   0.00000  -0.01431  -0.01431   2.06438
   R13        2.64397   0.04308   0.00000   0.05335   0.05335   2.69732
   R14        2.70231  -0.13932   0.00000  -0.18876  -0.18876   2.51355
   R15        2.64399   0.04309   0.00000   0.05335   0.05335   2.69734
   R16        2.70231  -0.13932   0.00000  -0.18876  -0.18876   2.51355
   R17        2.69991  -0.00809   0.00000  -0.01196  -0.01194   2.68797
   R18        2.70759  -0.01707   0.00000  -0.02382  -0.02381   2.68378
   R19        2.70761  -0.01708   0.00000  -0.02382  -0.02381   2.68379
   R20        2.07960  -0.01089   0.00000  -0.01726  -0.01726   2.06234
   R21        2.57881   0.01597   0.00000   0.01820   0.01819   2.59700
   R22        2.69428  -0.01184   0.00000  -0.01484  -0.01485   2.67943
   R23        2.07872  -0.00905   0.00000  -0.01433  -0.01433   2.06439
   R24        2.57884   0.01596   0.00000   0.01819   0.01818   2.59702
   R25        2.07873  -0.00905   0.00000  -0.01433  -0.01433   2.06439
   R26        2.07961  -0.01090   0.00000  -0.01727  -0.01727   2.06234
    A1        2.10219  -0.00209   0.00000  -0.00197  -0.00199   2.10020
    A2        2.11114  -0.00072   0.00000  -0.00374  -0.00373   2.10741
    A3        2.06985   0.00281   0.00000   0.00570   0.00571   2.07557
    A4        2.10772  -0.00203   0.00000  -0.00429  -0.00428   2.10344
    A5        2.11455   0.00367   0.00000   0.00922   0.00922   2.12378
    A6        2.06091  -0.00163   0.00000  -0.00494  -0.00494   2.05597
    A7        2.07328   0.00412   0.00000   0.00625   0.00627   2.07955
    A8        2.12408  -0.00313   0.00000  -0.00468  -0.00470   2.11938
    A9        2.08583  -0.00099   0.00000  -0.00157  -0.00157   2.08426
   A10        2.07322   0.00414   0.00000   0.00629   0.00631   2.07953
   A11        2.08592  -0.00101   0.00000  -0.00161  -0.00161   2.08431
   A12        2.12404  -0.00313   0.00000  -0.00468  -0.00469   2.11935
   A13        2.10775  -0.00203   0.00000  -0.00429  -0.00429   2.10346
   A14        2.06081  -0.00162   0.00000  -0.00490  -0.00490   2.05591
   A15        2.11463   0.00366   0.00000   0.00920   0.00920   2.12382
   A16        2.10221  -0.00210   0.00000  -0.00199  -0.00201   2.10020
   A17        2.06931   0.00289   0.00000   0.00590   0.00591   2.07522
   A18        2.11167  -0.00079   0.00000  -0.00391  -0.00390   2.10777
   A19        2.11143   0.00199   0.00000   0.00317   0.00318   2.11461
   A20        2.08564  -0.00092   0.00000  -0.00145  -0.00145   2.08419
   A21        2.08611  -0.00106   0.00000  -0.00172  -0.00172   2.08438
   A22        2.11143   0.00199   0.00000   0.00317   0.00318   2.11460
   A23        2.08565  -0.00093   0.00000  -0.00146  -0.00147   2.08418
   A24        2.08611  -0.00105   0.00000  -0.00170  -0.00171   2.08440
   A25        2.08584  -0.00098   0.00000  -0.00156  -0.00157   2.08427
   A26        2.12399  -0.00312   0.00000  -0.00466  -0.00468   2.11931
   A27        2.07336   0.00411   0.00000   0.00623   0.00625   2.07961
   A28        2.08592  -0.00100   0.00000  -0.00160  -0.00160   2.08432
   A29        2.12413  -0.00315   0.00000  -0.00472  -0.00474   2.11939
   A30        2.07314   0.00415   0.00000   0.00632   0.00634   2.07948
   A31        2.06079  -0.00161   0.00000  -0.00488  -0.00488   2.05591
   A32        2.10779  -0.00205   0.00000  -0.00432  -0.00432   2.10347
   A33        2.11460   0.00366   0.00000   0.00920   0.00920   2.12380
   A34        2.10223  -0.00210   0.00000  -0.00199  -0.00201   2.10022
   A35        2.11138  -0.00075   0.00000  -0.00382  -0.00381   2.10757
   A36        2.06958   0.00285   0.00000   0.00581   0.00582   2.07540
   A37        2.10211  -0.00208   0.00000  -0.00194  -0.00196   2.10015
   A38        2.06962   0.00284   0.00000   0.00579   0.00580   2.07542
   A39        2.11145  -0.00077   0.00000  -0.00385  -0.00384   2.10762
   A40        2.10773  -0.00203   0.00000  -0.00429  -0.00429   2.10344
   A41        2.06076  -0.00162   0.00000  -0.00489  -0.00489   2.05587
   A42        2.11469   0.00365   0.00000   0.00918   0.00918   2.12387
    D1        0.00280  -0.00007   0.00000  -0.00039  -0.00039   0.00241
    D2        3.14110   0.00001   0.00000   0.00009   0.00009   3.14119
    D3       -3.13904  -0.00006   0.00000  -0.00034  -0.00034  -3.13939
    D4       -0.00075   0.00002   0.00000   0.00014   0.00014  -0.00061
    D5        0.00002  -0.00000   0.00000   0.00001   0.00001   0.00004
    D6        3.14001   0.00004   0.00000   0.00025   0.00025   3.14026
    D7       -3.14132  -0.00001   0.00000  -0.00003  -0.00003  -3.14135
    D8       -0.00134   0.00003   0.00000   0.00021   0.00021  -0.00113
    D9       -0.00441   0.00010   0.00000   0.00058   0.00058  -0.00383
   D10        3.13748   0.00009   0.00000   0.00048   0.00048   3.13796
   D11        3.14038   0.00001   0.00000   0.00009   0.00009   3.14048
   D12       -0.00091  -0.00000   0.00000  -0.00001  -0.00001  -0.00092
   D13        0.00321  -0.00006   0.00000  -0.00040  -0.00040   0.00281
   D14       -3.14024  -0.00003   0.00000  -0.00019  -0.00019  -3.14043
   D15       -3.13867  -0.00005   0.00000  -0.00030  -0.00030  -3.13897
   D16        0.00106  -0.00002   0.00000  -0.00009  -0.00009   0.00097
   D17       -3.14077  -0.00001   0.00000  -0.00004  -0.00003  -3.14081
   D18       -0.00037   0.00002   0.00000   0.00016   0.00016  -0.00020
   D19        0.00112  -0.00003   0.00000  -0.00014  -0.00014   0.00098
   D20        3.14152   0.00001   0.00000   0.00006   0.00006   3.14158
   D21       -0.00049   0.00002   0.00000   0.00007   0.00007  -0.00042
   D22       -3.14124  -0.00000   0.00000  -0.00003  -0.00003  -3.14128
   D23       -3.14018  -0.00002   0.00000  -0.00015  -0.00015  -3.14034
   D24        0.00225  -0.00004   0.00000  -0.00026  -0.00026   0.00199
   D25       -0.00169   0.00003   0.00000   0.00018   0.00018  -0.00150
   D26        3.14158  -0.00005   0.00000  -0.00022  -0.00022   3.14135
   D27        3.13799   0.00007   0.00000   0.00042   0.00042   3.13841
   D28       -0.00193  -0.00000   0.00000   0.00001   0.00001  -0.00192
   D29       -0.00117   0.00003   0.00000   0.00015   0.00015  -0.00103
   D30       -3.14112  -0.00002   0.00000  -0.00010  -0.00010  -3.14122
   D31        3.13955   0.00005   0.00000   0.00025   0.00025   3.13980
   D32       -0.00039   0.00000   0.00000  -0.00000  -0.00000  -0.00040
   D33       -0.00265   0.00003   0.00000   0.00023   0.00023  -0.00242
   D34        3.13985   0.00002   0.00000   0.00014   0.00014   3.14000
   D35        3.14013  -0.00000   0.00000   0.00003   0.00003   3.14016
   D36       -0.00055  -0.00002   0.00000  -0.00006  -0.00006  -0.00061
   D37        0.00016  -0.00002   0.00000  -0.00009  -0.00009   0.00006
   D38       -3.14020  -0.00004   0.00000  -0.00021  -0.00021  -3.14041
   D39        3.14008   0.00005   0.00000   0.00031   0.00031   3.14039
   D40       -0.00028   0.00003   0.00000   0.00020   0.00020  -0.00008
   D41        0.00201  -0.00003   0.00000  -0.00013  -0.00013   0.00187
   D42       -3.14046  -0.00001   0.00000  -0.00006  -0.00006  -3.14052
   D43       -3.14079  -0.00001   0.00000  -0.00003  -0.00003  -3.14081
   D44       -0.00007   0.00000   0.00000   0.00005   0.00005  -0.00002
   D45        3.14003   0.00002   0.00000   0.00012   0.00012   3.14016
   D46       -0.00176   0.00002   0.00000   0.00015   0.00015  -0.00161
   D47       -0.00033   0.00000   0.00000   0.00001   0.00001  -0.00032
   D48        3.14106   0.00000   0.00000   0.00004   0.00004   3.14110
   D49       -0.00185   0.00004   0.00000   0.00022   0.00022  -0.00164
   D50       -3.14136  -0.00002   0.00000  -0.00010  -0.00010  -3.14146
   D51        3.14064   0.00003   0.00000   0.00013   0.00013   3.14077
   D52        0.00113  -0.00003   0.00000  -0.00019  -0.00019   0.00095
   D53       -0.00178   0.00004   0.00000   0.00025   0.00025  -0.00152
   D54        3.14084   0.00002   0.00000   0.00012   0.00012   3.14096
   D55       -3.14122  -0.00001   0.00000  -0.00006  -0.00006  -3.14128
   D56        0.00140  -0.00003   0.00000  -0.00019  -0.00019   0.00120
   D57        0.00136  -0.00003   0.00000  -0.00018  -0.00018   0.00118
   D58        3.14159  -0.00000   0.00000  -0.00001  -0.00001   3.14158
   D59       -3.14123  -0.00001   0.00000  -0.00006  -0.00006  -3.14129
   D60       -0.00100   0.00002   0.00000   0.00011   0.00011  -0.00089
   D61       -0.00029   0.00001   0.00000   0.00004   0.00005  -0.00024
   D62        3.14151   0.00000   0.00000   0.00002   0.00002   3.14154
   D63       -3.14049  -0.00003   0.00000  -0.00014  -0.00014  -3.14063
   D64        0.00132  -0.00003   0.00000  -0.00016  -0.00016   0.00115
         Item               Value     Threshold  Converged?
 Maximum Force            0.139318     0.000450     NO 
 RMS     Force            0.019445     0.000300     NO 
 Maximum Displacement     0.148673     0.001800     NO 
 RMS     Displacement     0.024648     0.001200     NO 
 Predicted change in Energy=-4.828742D-02
 Lowest energy point so far.  Saving SCF results.
 GradGradGradGradGradGradGradGradGradGradGradGradGradGradGradGradGradGrad

 Leave Link  103 at Sun May 30 18:17:13 2021, MaxMem=    33554432 cpu:         0.0
 (Enter /opt/app/gaussian09/e01/g09/l202.exe)
                          Input orientation:                          
 ---------------------------------------------------------------------
 Center     Atomic      Atomic             Coordinates (Angstroms)
 Number     Number       Type             X           Y           Z
 ---------------------------------------------------------------------
      1          6           0       -3.304061   -3.204763   -0.013113
      2          6           0       -1.929800   -3.201998   -0.012563
      3          6           0       -1.211061   -1.977068   -0.012700
      4          6           0       -1.931882   -0.750801   -0.018168
      5          6           0       -3.351747   -0.783014   -0.019866
      6          6           0       -4.022600   -1.982392   -0.016781
      7          6           0        0.216063   -1.951434   -0.007714
      8          6           0       -1.215397    0.483702   -0.019781
      9          6           0        0.211735    0.509319   -0.014170
     10          6           0        0.932532   -0.716920   -0.006921
     11          6           0        2.352351   -0.684627   -0.000034
     12          1           0        2.883046   -1.638227    0.006247
     13          6           0        3.023169    0.514803    0.000767
     14          6           0        2.304650    1.737133   -0.007151
     15          6           0        0.930386    1.734268   -0.014306
     16          1           0       -3.860653   -4.144756   -0.010940
     17          1           0       -1.354741   -4.129519   -0.009394
     18          1           0       -3.882402    0.170602   -0.024384
     19          1           0       -5.114623   -2.011882   -0.018421
     20          1           0        4.115188    0.544117    0.006648
     21          1           0        2.861373    2.677059   -0.006320
     22          1           0        0.355185    2.661703   -0.020416
     23          8           0       -1.889575    1.630286   -0.025169
     24          8           0        0.890017   -3.098150   -0.002591
 ---------------------------------------------------------------------
                    Distance matrix (angstroms):
                    1          2          3          4          5
     1  C    0.000000
     2  C    1.374264   0.000000
     3  C    2.426497   1.420225   0.000000
     4  C    2.811553   2.451204   1.422443   0.000000
     5  C    2.422228   2.805970   2.451195   1.420231   0.000000
     6  C    1.417922   2.422245   2.811548   2.426504   1.374249
     7  C    3.736594   2.483679   1.427362   2.460751   3.754280
     8  C    4.238790   3.754305   2.460784   1.427358   2.483658
     9  C    5.114219   4.284863   2.864694   2.486567   3.790588
    10  C    4.913057   3.790593   2.486563   2.864637   4.284808
    11  C    6.192436   4.967307   3.790576   4.284783   5.704981
    12  H    6.382375   5.060556   4.108148   4.896085   6.293228
    13  C    7.339564   6.192470   4.913075   5.114161   6.505713
    14  C    7.475294   6.505813   5.114249   4.913058   6.192425
    15  C    6.505734   5.705032   4.284835   3.790536   4.967233
    16  H    1.092422   2.148718   3.423334   3.903734   3.400055
    17  H    2.157553   1.091329   2.157244   3.427667   3.897081
    18  H    3.424572   3.897079   3.427636   2.157209   1.091329
    19  H    2.168209   3.399928   3.903722   3.423472   2.148918
    20  H    8.312626   7.111655   5.892850   6.184213   7.584003
[...]
      8          6           0        0.000001   -1.478571   -0.000209
      9          6           0       -1.275336   -0.704359   -0.000076
     10          6           0       -1.275336    0.704359    0.000048
     11          6           0       -2.490855    1.398520    0.000411
     12          1           0       -2.464008    2.483282    0.000469
     13          6           0       -3.695215    0.700060    0.000671
     14          6           0       -3.695215   -0.700061    0.000465
     15          6           0       -2.490854   -1.398520    0.000063
     16          1           0        4.636330    1.243060    0.000705
     17          1           0        2.464008    2.483282    0.000007
     18          1           0        2.464006   -2.483282    0.000344
     19          1           0        4.636331   -1.243058    0.000957
     20          1           0       -4.636330    1.243059    0.001016
     21          1           0       -4.636330   -1.243060    0.000626
     22          1           0       -2.464006   -2.483282   -0.000082
     23          8           0        0.000000   -2.704899   -0.001205
     24          8           0       -0.000000    2.704898   -0.001265
 ---------------------------------------------------------------------
 Rotational constants (GHZ):      1.1014536      0.4423712      0.3156131
 Leave Link  202 at Sun May 30 18:47:10 2021, MaxMem=    33554432 cpu:         0.0
 (Enter /opt/app/gaussian09/e01/g09/l601.exe)
 Copying SCF densities to generalized density rwf, IOpCl= 0 IROHF=0.

 **********************************************************************

            Population analysis using the SCF density.

 **********************************************************************

 Orbital symmetries:
       Occupied  (A) (A) (A) (A) (A) (A) (A) (A) (A) (A) (A) (A)
                 (A) (A) (A) (A) (A) (A) (A) (A) (A) (A) (A) (A)
                 (A) (A) (A) (A) (A) (A) (A) (A) (A) (A) (A) (A)
                 (A) (A) (A) (A) (A) (A) (A) (A) (A) (A) (A) (A)
                 (A) (A) (A) (A) (A) (A)
       Virtual   (A) (A) (A) (A) (A) (A) (A) (A) (A) (A) (A) (A)
                 (A) (A) (A) (A) (A) (A) (A) (A) (A) (A) (A) (A)
                 (A) (A) (A) (A) (A) (A) (A) (A) (A) (A) (A) (A)
                 (A) (A) (A) (A) (A) (A) (A) (A) (A) (A) (A) (A)
                 (A) (A) (A) (A) (A) (A) (A) (A) (A) (A) (A) (A)
                 (A) (A) (A) (A) (A) (A) (A) (A) (A) (A) (A) (A)
                 (A) (A) (A) (A) (A) (A) (A) (A) (A) (A) (A) (A)
                 (A) (A) (A) (A) (A) (A) (A) (A) (A) (A) (A) (A)
                 (A) (A) (A) (A) (A) (A) (A) (A) (A) (A) (A) (A)
                 (A) (A) (A) (A) (A) (A) (A) (A) (A) (A) (A) (A)
                 (A) (A) (A) (A) (A) (A) (A) (A) (A) (A) (A) (A)
                 (A) (A) (A) (A) (A) (A) (A) (A) (A) (A) (A) (A)
                 (A) (A) (A) (A) (A) (A) (A) (A) (A) (A) (A) (A)
                 (A) (A) (A) (A) (A) (A) (A) (A) (A) (A) (A) (A)
                 (A) (A) (A) (A) (A) (A) (A) (A) (A) (A) (A) (A)
                 (A) (A) (A) (A) (A) (A) (A) (A) (A) (A) (A) (A)
                 (A) (A) (A) (A) (A) (A) (A) (A) (A) (A)
 The electronic state is 1-A.
 Alpha  occ. eigenvalues --  -19.14665 -19.14664 -10.28519 -10.28518 -10.21563
 Alpha  occ. eigenvalues --  -10.21562 -10.21513 -10.21513 -10.21265 -10.21265
 Alpha  occ. eigenvalues --  -10.21212 -10.21212 -10.20821 -10.20821 -10.20820
 Alpha  occ. eigenvalues --  -10.20820  -1.04567  -1.04370  -0.88305  -0.87175
 Alpha  occ. eigenvalues --   -0.80272  -0.77004  -0.76798  -0.76134  -0.67929
 Alpha  occ. eigenvalues --   -0.66009  -0.63347  -0.60902  -0.57579  -0.55259
 Alpha  occ. eigenvalues --   -0.54838  -0.49231  -0.48184  -0.47774  -0.47469
 Alpha  occ. eigenvalues --   -0.44444  -0.44191  -0.44054  -0.43604  -0.43077
 Alpha  occ. eigenvalues --   -0.42565  -0.40021  -0.39130  -0.38262  -0.36807
 Alpha  occ. eigenvalues --   -0.36663  -0.35568  -0.35550  -0.27612  -0.26991
 Alpha  occ. eigenvalues --   -0.26878  -0.26674  -0.26572  -0.25715
 Alpha virt. eigenvalues --   -0.10264  -0.05738  -0.02280  -0.01146   0.05385
 Alpha virt. eigenvalues --    0.05696   0.08916   0.09911   0.14243   0.14410
 Alpha virt. eigenvalues --    0.14650   0.15578   0.17208   0.18072   0.18106
 Alpha virt. eigenvalues --    0.21101   0.21283   0.24468   0.24997   0.25123
 Alpha virt. eigenvalues --    0.26765   0.27280   0.30957   0.31848   0.33309
 Alpha virt. eigenvalues --    0.33677   0.34041   0.36900   0.42140   0.42404
 Alpha virt. eigenvalues --    0.47530   0.48345   0.49524   0.51155   0.51267
 Alpha virt. eigenvalues --    0.53860   0.54065   0.54251   0.54291   0.54541
 Alpha virt. eigenvalues --    0.54674   0.57656   0.58505   0.58556   0.59404
 Alpha virt. eigenvalues --    0.59595   0.59805   0.60531   0.60719   0.60745
 Alpha virt. eigenvalues --    0.62632   0.62779   0.63283   0.65001   0.66518
 Alpha virt. eigenvalues --    0.69287   0.71284   0.71577   0.72791   0.75589
 Alpha virt. eigenvalues --    0.77382   0.79914   0.80999   0.81495   0.81894
 Alpha virt. eigenvalues --    0.82147   0.82191   0.83219   0.86620   0.87109
 Alpha virt. eigenvalues --    0.87773   0.87994   0.88588   0.90811   0.91756
 Alpha virt. eigenvalues --    0.94906   0.98544   0.99683   1.00103   1.01132
 Alpha virt. eigenvalues --    1.01971   1.05164   1.05701   1.08467   1.10120
 Alpha virt. eigenvalues --    1.11352   1.12956   1.15304   1.17677   1.19534
 Alpha virt. eigenvalues --    1.21387   1.22951   1.23789   1.24471   1.25812
 Alpha virt. eigenvalues --    1.27094   1.34492   1.34914   1.34933   1.37181
 Alpha virt. eigenvalues --    1.37977   1.37978   1.41957   1.42475   1.43791
 Alpha virt. eigenvalues --    1.45388   1.46472   1.46925   1.47921   1.47983
 Alpha virt. eigenvalues --    1.48034   1.50198   1.59235   1.59982   1.64656
 Alpha virt. eigenvalues --    1.65150   1.72229   1.75072   1.75240   1.76263
 Alpha virt. eigenvalues --    1.77563   1.79719   1.80731   1.81358   1.83251
 Alpha virt. eigenvalues --    1.83367   1.86920   1.89462   1.90617   1.91059
 Alpha virt. eigenvalues --    1.91403   1.91738   1.92988   1.97543   1.99241
 Alpha virt. eigenvalues --    2.02139   2.02987   2.03823   2.04379   2.06885
 Alpha virt. eigenvalues --    2.11726   2.12396   2.13397   2.14154   2.14755
 Alpha virt. eigenvalues --    2.18325   2.20804   2.25117   2.25709   2.26973
 Alpha virt. eigenvalues --    2.27461   2.28073   2.28335   2.29064   2.32153
 Alpha virt. eigenvalues --    2.37672   2.39068   2.43431   2.50621   2.52040
 Alpha virt. eigenvalues --    2.52975   2.55106   2.56974   2.59567   2.64744
 Alpha virt. eigenvalues --    2.65300   2.65797   2.67125   2.71456   2.71541
 Alpha virt. eigenvalues --    2.71834   2.73616   2.76557   2.77693   2.83246
 Alpha virt. eigenvalues --    2.83830   2.84428   2.95723   2.97417   2.98077
 Alpha virt. eigenvalues --    3.04819   3.09131   3.15224   3.29906   3.41698
 Alpha virt. eigenvalues --    3.48548   3.95222   3.96737   4.07293   4.07344
 Alpha virt. eigenvalues --    4.11444   4.11658   4.12632   4.17814   4.31824
 Alpha virt. eigenvalues --    4.32530   4.33328   4.41019   4.59018   4.63943
 Alpha virt. eigenvalues --    4.64283   4.90552
          Condensed to atoms (all electrons):
               1          2          3          4          5          6
     1  C    4.916483   0.479364  -0.019927  -0.035309  -0.021097   0.515633
     2  C    0.479364   5.079254   0.460642  -0.057170  -0.058564  -0.021097
     3  C   -0.019927   0.460642   5.174211   0.432445  -0.057170  -0.035309
     4  C   -0.035309  -0.057170   0.432445   5.174210   0.460643  -0.019927
     5  C   -0.021097  -0.058564  -0.057170   0.460643   5.079254   0.479364
     6  C    0.515633  -0.021097  -0.035309  -0.019927   0.479364   4.916483
     7  C    0.006811  -0.056837   0.200443   0.013712   0.009338  -0.000443
     8  C   -0.000443   0.009338   0.013712   0.200443  -0.056837   0.006811
     9  C    0.000048  -0.001363  -0.043409  -0.052780   0.014154  -0.000257
    10  C   -0.000257   0.014155  -0.052781  -0.043409  -0.001363   0.000048
    11  C   -0.000001  -0.000351   0.014155  -0.001363   0.000018   0.000001
    12  H   -0.000000  -0.000012   0.000851  -0.000018   0.000000   0.000000
    13  C   -0.000000  -0.000001  -0.000257   0.000048   0.000001  -0.000000
    14  C   -0.000000   0.000001   0.000048  -0.000257  -0.000001  -0.000000
    15  C    0.000001   0.000018  -0.001363   0.014154  -0.000351  -0.000001
    16  H    0.361776  -0.037551   0.002871   0.000906   0.003875  -0.040890
    17  H   -0.042437   0.355757  -0.041047   0.004779   0.000392   0.004126
    18  H    0.004126   0.000392   0.004779  -0.041047   0.355757  -0.042437
    19  H   -0.040891   0.003875   0.000906   0.002871  -0.037551   0.361776
    20  H   -0.000000  -0.000000   0.000002  -0.000000   0.000000   0.000000
    21  H    0.000000   0.000000  -0.000000   0.000002  -0.000000  -0.000000
    22  H    0.000000   0.000000  -0.000018   0.000851  -0.000012  -0.000000
    23  O   -0.000007  -0.000063   0.004190  -0.105377   0.002545   0.000901
    24  O    0.000901   0.002545  -0.105377   0.004190  -0.000063  -0.000007
               7          8          9         10         11         12
     1  C    0.006811  -0.000443   0.000048  -0.000257  -0.000001  -0.000000
     2  C   -0.056837   0.009338  -0.001363   0.014155  -0.000351  -0.000012
     3  C    0.200443   0.013712  -0.043409  -0.052781   0.014155   0.000851
     4  C    0.013712   0.200443  -0.052780  -0.043409  -0.001363  -0.000018
     5  C    0.009338  -0.056837   0.014154  -0.001363   0.000018   0.000000
     6  C   -0.000443   0.006811  -0.000257   0.000048   0.000001   0.000000
     7  C    4.802332  -0.056164   0.013712   0.200443  -0.056837  -0.008837
     8  C   -0.056164   4.802333   0.200443   0.013712   0.009338  -0.000108
     9  C    0.013712   0.200443   5.174210   0.432445  -0.057170   0.004779
    10  C    0.200443   0.013712   0.432445   5.174211   0.460642  -0.041047
    11  C   -0.056837   0.009338  -0.057170   0.460642   5.079254   0.355757
    12  H   -0.008837  -0.000108   0.004779  -0.041047   0.355757   0.545365
    13  C    0.006811  -0.000443  -0.035309  -0.019927   0.479364  -0.042437
    14  C   -0.000443   0.006811  -0.019927  -0.035309  -0.021097   0.004126
    15  C    0.009338  -0.056836   0.460643  -0.057170  -0.058564   0.000392
    16  H   -0.000131   0.000010  -0.000000   0.000002  -0.000000  -0.000000
    17  H   -0.008837  -0.000108  -0.000018   0.000851  -0.000012  -0.000008
    18  H   -0.000108  -0.008837   0.000851  -0.000018   0.000000  -0.000000
    19  H    0.000010  -0.000131   0.000002  -0.000000   0.000000  -0.000000
    20  H   -0.000131   0.000010   0.000906   0.002871  -0.037551  -0.004207
    21  H    0.000010  -0.000131   0.002871   0.000906   0.003875  -0.000150
    22  H   -0.000108  -0.008837  -0.041047   0.004779   0.000392   0.000017
    23  O   -0.000150   0.578538  -0.105377   0.004190  -0.000063   0.000000
    24  O    0.578539  -0.000150   0.004190  -0.105377   0.002545   0.016590
              13         14         15         16         17         18
     1  C   -0.000000  -0.000000   0.000001   0.361776  -0.042437   0.004126
     2  C   -0.000001   0.000001   0.000018  -0.037551   0.355757   0.000392
     3  C   -0.000257   0.000048  -0.001363   0.002871  -0.041047   0.004779
     4  C    0.000048  -0.000257   0.014154   0.000906   0.004779  -0.041047
     5  C    0.000001  -0.000001  -0.000351   0.003875   0.000392   0.355757
     6  C   -0.000000  -0.000000  -0.000001  -0.040890   0.004126  -0.042437
     7  C    0.006811  -0.000443   0.009338  -0.000131  -0.008837  -0.000108
     8  C   -0.000443   0.006811  -0.056836   0.000010  -0.000108  -0.008837
     9  C   -0.035309  -0.019927   0.460643  -0.000000  -0.000018   0.000851
    10  C   -0.019927  -0.035309  -0.057170   0.000002   0.000851  -0.000018
    11  C    0.479364  -0.021097  -0.058564  -0.000000  -0.000012   0.000000
    12  H   -0.042437   0.004126   0.000392  -0.000000  -0.000008  -0.000000
    13  C    4.916483   0.515633  -0.021097  -0.000000  -0.000000   0.000000
    14  C    0.515633   4.916483   0.479364   0.000000   0.000000  -0.000000
    15  C   -0.021097   0.479364   5.079254   0.000000   0.000000  -0.000012
    16  H   -0.000000   0.000000   0.000000   0.572244  -0.004207  -0.000150
    17  H   -0.000000   0.000000   0.000000  -0.004207   0.545365   0.000017
    18  H    0.000000  -0.000000  -0.000012  -0.000150   0.000017   0.545365
    19  H    0.000000  -0.000000  -0.000000  -0.004832  -0.000150  -0.004207
    20  H    0.361776  -0.040891   0.003875  -0.000000  -0.000000  -0.000000
    21  H   -0.040890   0.361776  -0.037551   0.000000  -0.000000  -0.000000
    22  H    0.004126  -0.042437   0.355757  -0.000000  -0.000000  -0.000008
    23  O   -0.000007   0.000901   0.002545   0.000000   0.000000   0.016590
    24  O    0.000901  -0.000007  -0.000063   0.000001   0.016590   0.000000
              19         20         21         22         23         24
     1  C   -0.040891  -0.000000   0.000000   0.000000  -0.000007   0.000901
     2  C    0.003875  -0.000000   0.000000   0.000000  -0.000063   0.002545
     3  C    0.000906   0.000002  -0.000000  -0.000018   0.004190  -0.105377
     4  C    0.002871  -0.000000   0.000002   0.000851  -0.105377   0.004190
     5  C   -0.037551   0.000000  -0.000000  -0.000012   0.002545  -0.000063
     6  C    0.361776   0.000000  -0.000000  -0.000000   0.000901  -0.000007
     7  C    0.000010  -0.000131   0.000010  -0.000108  -0.000150   0.578539
     8  C   -0.000131   0.000010  -0.000131  -0.008837   0.578538  -0.000150
     9  C    0.000002   0.000906   0.002871  -0.041047  -0.105377   0.004190
    10  C   -0.000000   0.002871   0.000906   0.004779   0.004190  -0.105377
    11  C    0.000000  -0.037551   0.003875   0.000392  -0.000063   0.002545
    12  H   -0.000000  -0.004207  -0.000150   0.000017   0.000000   0.016590
    13  C    0.000000   0.361776  -0.040890   0.004126  -0.000007   0.000901
    14  C   -0.000000  -0.040891   0.361776  -0.042437   0.000901  -0.000007
    15  C   -0.000000   0.003875  -0.037551   0.355757   0.002545  -0.000063
    16  H   -0.004832  -0.000000   0.000000  -0.000000   0.000000   0.000001
    17  H   -0.000150  -0.000000  -0.000000  -0.000000   0.000000   0.016590
    18  H   -0.004207  -0.000000  -0.000000  -0.000008   0.016590   0.000000
    19  H    0.572244   0.000000  -0.000000  -0.000000   0.000001   0.000000
    20  H    0.000000   0.572244  -0.004832  -0.000150   0.000000   0.000001
    21  H   -0.000000  -0.004832   0.572244  -0.004207   0.000001   0.000000
    22  H   -0.000000  -0.000150  -0.004207   0.545365   0.016590   0.000000
    23  O    0.000001   0.000000   0.000001   0.016590   8.062222   0.000000
    24  O    0.000000   0.000001   0.000000   0.000000   0.000000   8.062221
 Mulliken charges:
               1
     1  C   -0.124774
     2  C   -0.172332
     3  C    0.047404
     4  C    0.047404
     5  C   -0.172332
     6  C   -0.124774
     7  C    0.347525
     8  C    0.347525
     9  C    0.047404
    10  C    0.047404
    11  C   -0.172332
    12  H    0.168947
    13  C   -0.124774
    14  C   -0.124774
    15  C   -0.172332
    16  H    0.146078
    17  H    0.168947
    18  H    0.168948
    19  H    0.146078
    20  H    0.146078
    21  H    0.146078
    22  H    0.168947
    23  O   -0.478172
    24  O   -0.478171
 Sum of Mulliken charges =   0.00000
 Mulliken charges with hydrogens summed into heavy atoms:
               1
     1  C    0.021304
     2  C   -0.003384
     3  C    0.047404
     4  C    0.047404
     5  C   -0.003384
     6  C    0.021304
     7  C    0.347525
     8  C    0.347525
     9  C    0.047404
    10  C    0.047404
    11  C   -0.003384
    13  C    0.021304
    14  C    0.021304
    15  C   -0.003384
    23  O   -0.478172
    24  O   -0.478171
 Electronic spatial extent (au):  <R**2>=           3299.3396
 Charge=             -0.0000 electrons
 Dipole moment (field-independent basis, Debye):
    X=              0.0000    Y=              0.0000    Z=              0.0042  Tot=              0.0042
 Quadrupole moment (field-independent basis, Debye-Ang):
   XX=            -65.3181   YY=            -98.8677   ZZ=            -91.5177
   XY=              0.0000   XZ=             -0.0000   YZ=              0.0004
 Traceless Quadrupole moment (field-independent basis, Debye-Ang):
   XX=             19.9164   YY=            -13.6332   ZZ=             -6.2832
   XY=              0.0000   XZ=             -0.0000   YZ=              0.0004
 Octapole moment (field-independent basis, Debye-Ang**2):
  XXX=              0.0000  YYY=              0.0001  ZZZ=             -0.0165  XYY=              0.0000
  XXY=              0.0000  XXZ=              0.0212  XZZ=             -0.0000  YZZ=              0.0000
  YYZ=              0.0353  XYZ=             -0.0044
 Hexadecapole moment (field-independent basis, Debye-Ang**3):
 XXXX=          -2657.1121 YYYY=          -1305.9970 ZZZZ=            -89.8952 XXXY=              0.0001
 XXXZ=              0.0006 YYYX=              0.0001 YYYZ=              0.0042 ZZZX=             -0.0000
 ZZZY=             -0.0011 XXYY=           -631.8190 XXZZ=           -589.6249 YYZZ=           -213.6178
 XXYZ=              0.0031 YYXZ=             -0.0003 ZZXY=             -0.0000
 N-N= 9.760265031262D+02 E-N=-3.553297415790D+03  KE= 6.823357400575D+02
 No NMR shielding tensors so no spin-rotation constants.
 Leave Link  601 at Sun May 30 18:47:10 2021, MaxMem=    33554432 cpu:         0.2
 (Enter /opt/app/gaussian09/e01/g09/l9999.exe)
 1\1\GINC-NB-0335\FOpt\RB3LYP\6-31G(d)\C14H8O2\ROOT\30-May-2021\0\\#p o
 pt b3lyp/6-31g* geom=connectivity int=ultrafine\\Title Card Required\\
 0,1\C,-3.3304678188,-3.2100332959,-0.0141563668\C,-1.9382603808,-3.201
 8036072,-0.0096357805\C,-1.2421790423,-1.9873836651,-0.0106458325\C,-1
 .9560829432,-0.77297158,-0.0163291288\C,-3.355731318,-0.7905625333,-0.
 020951221\C,-4.0400146237,-2.0030326262,-0.019810112\C,0.2496028773,-2
 .0084875899,-0.0055433475\C,-1.2490038617,0.5407720339,-0.0176086403\C
 ,0.2427776759,0.5196685906,-0.0121293244\C,0.9566801171,-0.6947429456,
 -0.0062039922\C,2.3563259718,-0.6771498813,-0.0009257811\H,2.882911746
 5,-1.6258944441,0.0035540281\C,3.0406071777,0.535321838,-0.0015056448\
 C,2.3310617205,1.7423216966,-0.0074781026\C,0.9388574171,1.7340894164,
 -0.0127937959\H,-3.8665980094,-4.1550782098,-0.0133260713\H,-1.3653867
 522,-4.1233376453,-0.0052425417\H,-3.8823159768,0.1581828815,-0.025360
 8107\H,-5.1265024116,-2.0118731487,-0.0233140453\H,4.1270926512,0.5441
 633097,0.0026671215\H,2.8671916563,2.6873670714,-0.0079624155\H,0.3659
 828754,2.6556218296,-0.0174517052\O,-1.8704724331,1.5979483326,-0.0236
 545998\O,0.8710778248,-3.0656679979,-0.0014346496\\Version=ES64L-G09Re
 vE.01\State=1-A\HF=-688.7790986\RMSD=5.110e-09\RMSF=5.938e-05\Dipole=-
 0.0000057,0.0000019,0.0016553\Quadrupole=8.4011343,-3.7297067,-4.67142
 76,10.8972795,0.017151,0.0358391\PG=C01 [X(C14H8O2)]\\@


 CHARLIE BROWN.."I CAN'T GET THAT STUPID KITE IN THE
 AIR... I CAN'T... I C A N N O T..."
 LUCY.."OH COME NOW CHARLIE BROWN...THAT'S NO WAY TO TALK...
 THE TROUBLE WITH YOU IS YOU DON'T BELIEVE IN YOURSELF... YOU
 DON'T BELIEVE IN YOUR OWN ABILITIES...  YOU'VE GOT TO SAY TO
 YOURSELF...'I BELIEVE I CAN FLY THIS KITE.'... GO AHEAD SAY
 IT...."
 CHARLIE BROWN.."I BELIEVE THAT I CAN FLY THIS STUPID
 KITE.....I BELIEVE THAT I CAN FLY THIS KITE........
 I  A C T U A L L Y  B E L I E V E  T H A T  I  C A N ******"
 LUCY.."I'LL BET YOU TEN-TO-ONE YOU'RE WRONG......."    SCHULZ
 Job cpu time:       0 days  0 hours 37 minutes  8.6 seconds.
 File lengths (MBytes):  RWF=     43 Int=      0 D2E=      0 Chk=      6 Scr=      1
 Normal termination of Gaussian 09 at Sun May 30 18:47:11 2021.
