 Entering Gaussian System, Link 0=/opt/app/gaussian09/e01/g09/g09.exec
 Input=5_pp_opt.gjf
 Output=5_pp_opt.log
 Initial command:
 /opt/app/gaussian09/e01/g09/l1.exe "./Gau-42471.inp" -scrdir="./"
 Entering Link 1 = /opt/app/gaussian09/e01/g09/l1.exe PID=     42649.
  
 Copyright (c) 1988,1990,1992,1993,1995,1998,2003,2009,2015,
            Gaussian, Inc.  All Rights Reserved.
  
 This is part of the Gaussian(R) 09 program.  It is based on
 the Gaussian(R) 03 system (copyright 2003, Gaussian, Inc.),
 the Gaussian(R) 98 system (copyright 1998, Gaussian, Inc.),
 the Gaussian(R) 94 system (copyright 1995, Gaussian, Inc.),
 the Gaussian 92(TM) system (copyright 1992, Gaussian, Inc.),
 the Gaussian 90(TM) system (copyright 1990, Gaussian, Inc.),
 the Gaussian 88(TM) system (copyright 1988, Gaussian, Inc.),
 the Gaussian 86(TM) system (copyright 1986, Carnegie Mellon
 University), and the Gaussian 82(TM) system (copyright 1983,
 Carnegie Mellon University). Gaussian is a federally registered
 trademark of Gaussian, Inc.
  
 This software contains proprietary and confidential information,
 including trade secrets, belonging to Gaussian, Inc.
  
 This software is provided under written license and may be
 used, copied, transmitted, or stored only in accord with that
 written license.
  
 The following legend is applicable only to US Government
 contracts under FAR:
  
                    RESTRICTED RIGHTS LEGEND
  
 Use, reproduction and disclosure by the US Government is
 subject to restrictions as set forth in subparagraphs (a)
 and (c) of the Commercial Computer Software - Restricted
 Rights clause in FAR 52.227-19.
  
 Gaussian, Inc.
 340 Quinnipiac St., Bldg. 40, Wallingford CT 06492
  
  
 ---------------------------------------------------------------
 Warning -- This program may not be used in any manner that
 competes with the business of Gaussian, Inc. or will provide
 assistance to any competitor of Gaussian, Inc.  The licensee
 of this program is prohibited from giving any competitor of
 Gaussian, Inc. access to this program.  By using this program,
 the user acknowledges that Gaussian, Inc. is engaged in the
 business of creating and licensing software in the field of
 computational chemistry and represents and warrants to the
 licensee that it is not a competitor of Gaussian, Inc. and that
 it will not use this program in any manner prohibited above.
 ---------------------------------------------------------------
  

 Cite this work as:
 Gaussian 09, Revision E.01,
 M. J. Frisch, G. W. Trucks, H. B. Schlegel, G. E. Scuseria, 
 M. A. Robb, J. R. Cheeseman, G. Scalmani, V. Barone, B. Mennucci, 
 G. A. Petersson, H. Nakatsuji, M. Caricato, X. Li, H. P. Hratchian, 
 A. F. Izmaylov, J. Bloino, G. Zheng, J. L. Sonnenberg, M. Hada, 
 M. Ehara, K. Toyota, R. Fukuda, J. Hasegawa, M. Ishida, T. Nakajima, 
 Y. Honda, O. Kitao, H. Nakai, T. Vreven, J. A. Montgomery, Jr., 
 J. E. Peralta, F. Ogliaro, M. Bearpark, J. J. Heyd, E. Brothers, 
 K. N. Kudin, V. N. Staroverov, T. Keith, R. Kobayashi, J. Normand, 
 K. Raghavachari, A. Rendell, J. C. Burant, S. S. Iyengar, J. Tomasi, 
 M. Cossi, N. Rega, J. M. Millam, M. Klene, J. E. Knox, J. B. Cross, 
 V. Bakken, C. Adamo, J. Jaramillo, R. Gomperts, R. E. Stratmann, 
 O. Yazyev, A. J. Austin, R. Cammi, C. Pomelli, J. W. Ochterski, 
 R. L. Martin, K. Morokuma, V. G. Zakrzewski, G. A. Voth, 
 P. Salvador, J. J. Dannenberg, S. Dapprich, A. D. Daniels, 
 O. Farkas, J. B. Foresman, J. V. Ortiz, J. Cioslowski, 
 and D. J. Fox, Gaussian, Inc., Wallingford CT, 2013.
 
 ******************************************
 Gaussian 09:  ES64L-G09RevE.01 30-Nov-2015
                 8-Jun-2021 
 ******************************************
 %chk=5_pp_opt.chk
 ---------------------------------------------------
 #p opt b3lyp/6-31g(d,p) geom=connectivity scf=tight
 ---------------------------------------------------
 1/14=-1,18=20,19=15,26=3,38=1,57=2/1,3;
 2/9=110,12=2,17=6,18=5,40=1/2;
 3/5=1,6=6,7=101,11=2,16=1,25=1,30=1,71=1,74=-5/1,2,3;
 4//1;
 5/5=2,32=2,38=5/2;
 6/7=2,8=2,9=2,10=2,28=1/1;
 7//1,2,3,16;
 1/14=-1,18=20,19=15,26=3/3(2);
 2/9=110/2;
 99//99;
 2/9=110/2;
 3/5=1,6=6,7=101,11=2,16=1,25=1,30=1,71=1,74=-5/1,2,3;
 4/5=5,16=3,69=1/1;
 5/5=2,32=2,38=5/2;
 7//1,2,3,16;
 1/14=-1,18=20,19=15,26=3/3(-5);
 2/9=110/2;
 6/7=2,8=2,9=2,10=2,19=2,28=1/1;
 99/9=1/99;
 Leave Link    1 at Tue Jun  8 16:10:09 2021, MaxMem=           0 cpu:         0.0
 (Enter /opt/app/gaussian09/e01/g09/l101.exe)
 ---
 opt
 ---
 Symbolic Z-matrix:
 Charge =  1 Multiplicity = 1
 C                    -1.8194    0.22386  -0.36362 
 H                    -1.8093    1.29209  -0.31753 
 C                    -0.65446  -0.46796  -0.39199 
 H                    -0.66919  -1.53819  -0.45818 
 C                     0.56952   0.2109   -0.32801 
 H                     0.59219   1.27963  -0.28637 
 C                    -3.04285  -0.45645  -0.39133 
 H                    -3.06103  -1.52216  -0.44087 
 C                    -4.20479   0.24344  -0.35858 
 H                    -4.19205   1.31441  -0.30025 
 N                    -5.48373  -0.4724   -0.40846 
 C                     1.76146  -0.52461  -0.31338 
 H                     1.72563  -1.59441  -0.36949 
 C                     3.12653   0.18925  -0.21454 
 H                     3.17795   1.25742  -0.17931 
 C                     4.26919  -0.54501  -0.17106 
 H                     4.21925  -1.61369  -0.20265 
 C                     5.63446   0.16502  -0.07726 
 H                     5.6804    1.23405  -0.06346 
 C                     6.77607  -0.55762  -0.01695 
 H                     6.73851  -1.62862  -0.05349 
 N                     9.21662  -0.52706   0.18979 
 C                     8.13173   0.16235   0.10346 
 H                     8.17639   1.23033   0.12248 
 C                    -5.32357  -1.79452   0.20526 
 H                    -4.57811  -2.34311  -0.33472 
 H                    -5.01934  -1.67734   1.22556 
 H                    -6.25448  -2.32112   0.1695 
 C                    -6.51015   0.28559   0.33089 
 H                    -6.20813   0.39775   1.35212 
 H                    -6.63036   1.25422  -0.11377 
 H                    -7.43699  -0.24765   0.28989 
 C                     10.52926   0.12629   0.2962 
 H                     10.3999   1.19      0.39716 
 H                     11.0341  -0.24213   1.17408 
 H                     11.10461  -0.08683  -0.5794 
 C                     9.12835  -1.99461   0.19211 
 H                     9.12294  -2.35404   1.20638 
 H                     8.20851  -2.28723  -0.29869 
 H                     9.97395  -2.40951  -0.32831 
 
 NAtoms=     40 NQM=       40 NQMF=       0 NMMI=      0 NMMIF=      0
                NMic=       0 NMicF=      0.
                    Isotopes and Nuclear Properties:
 (Nuclear quadrupole moments (NQMom) in fm**2, nuclear magnetic moments (NMagM)
  in nuclear magnetons)

  Atom         1           2           3           4           5           6           7           8           9          10
 IAtWgt=          12           1          12           1          12           1          12           1          12           1
 AtmWgt=  12.0000000   1.0078250  12.0000000   1.0078250  12.0000000   1.0078250  12.0000000   1.0078250  12.0000000   1.0078250
 NucSpn=           0           1           0           1           0           1           0           1           0           1
 AtZEff=   0.0000000   0.0000000   0.0000000   0.0000000   0.0000000   0.0000000   0.0000000   0.0000000   0.0000000   0.0000000
 NQMom=    0.0000000   0.0000000   0.0000000   0.0000000   0.0000000   0.0000000   0.0000000   0.0000000   0.0000000   0.0000000
 NMagM=    0.0000000   2.7928460   0.0000000   2.7928460   0.0000000   2.7928460   0.0000000   2.7928460   0.0000000   2.7928460
 AtZNuc=   6.0000000   1.0000000   6.0000000   1.0000000   6.0000000   1.0000000   6.0000000   1.0000000   6.0000000   1.0000000

  Atom        11          12          13          14          15          16          17          18          19          20
 IAtWgt=          14          12           1          12           1          12           1          12           1          12
 AtmWgt=  14.0030740  12.0000000   1.0078250  12.0000000   1.0078250  12.0000000   1.0078250  12.0000000   1.0078250  12.0000000
 NucSpn=           2           0           1           0           1           0           1           0           1           0
 AtZEff=   0.0000000   0.0000000   0.0000000   0.0000000   0.0000000   0.0000000   0.0000000   0.0000000   0.0000000   0.0000000
 NQMom=    2.0440000   0.0000000   0.0000000   0.0000000   0.0000000   0.0000000   0.0000000   0.0000000   0.0000000   0.0000000
 NMagM=    0.4037610   0.0000000   2.7928460   0.0000000   2.7928460   0.0000000   2.7928460   0.0000000   2.7928460   0.0000000
 AtZNuc=   7.0000000   6.0000000   1.0000000   6.0000000   1.0000000   6.0000000   1.0000000   6.0000000   1.0000000   6.0000000

  Atom        21          22          23          24          25          26          27          28          29          30
 IAtWgt=           1          14          12           1          12           1           1           1          12           1
 AtmWgt=   1.0078250  14.0030740  12.0000000   1.0078250  12.0000000   1.0078250   1.0078250   1.0078250  12.0000000   1.0078250
 NucSpn=           1           2           0           1           0           1           1           1           0           1
 AtZEff=   0.0000000   0.0000000   0.0000000   0.0000000   0.0000000   0.0000000   0.0000000   0.0000000   0.0000000   0.0000000
 NQMom=    0.0000000   2.0440000   0.0000000   0.0000000   0.0000000   0.0000000   0.0000000   0.0000000   0.0000000   0.0000000
 NMagM=    2.7928460   0.4037610   0.0000000   2.7928460   0.0000000   2.7928460   2.7928460   2.7928460   0.0000000   2.7928460
 AtZNuc=   1.0000000   7.0000000   6.0000000   1.0000000   6.0000000   1.0000000   1.0000000   1.0000000   6.0000000   1.0000000

  Atom        31          32          33          34          35          36          37          38          39          40
 IAtWgt=           1           1          12           1           1           1          12           1           1           1
 AtmWgt=   1.0078250   1.0078250  12.0000000   1.0078250   1.0078250   1.0078250  12.0000000   1.0078250   1.0078250   1.0078250
 NucSpn=           1           1           0           1           1           1           0           1           1           1
 AtZEff=   0.0000000   0.0000000   0.0000000   0.0000000   0.0000000   0.0000000   0.0000000   0.0000000   0.0000000   0.0000000
 NQMom=    0.0000000   0.0000000   0.0000000   0.0000000   0.0000000   0.0000000   0.0000000   0.0000000   0.0000000   0.0000000
 NMagM=    2.7928460   2.7928460   0.0000000   2.7928460   2.7928460   2.7928460   0.0000000   2.7928460   2.7928460   2.7928460
 AtZNuc=   1.0000000   1.0000000   6.0000000   1.0000000   1.0000000   1.0000000   6.0000000   1.0000000   1.0000000   1.0000000
 Leave Link  101 at Tue Jun  8 16:10:10 2021, MaxMem=    33554432 cpu:         0.1
 (Enter /opt/app/gaussian09/e01/g09/l103.exe)

 GradGradGradGradGradGradGradGradGradGradGradGradGradGradGradGradGradGrad
 Berny optimization.
 Initialization pass.
                           ----------------------------
                           !    Initial Parameters    !
                           ! (Angstroms and Degrees)  !
 --------------------------                            --------------------------
 ! Name  Definition              Value          Derivative Info.                !
 --------------------------------------------------------------------------------
 ! R1    R(1,2)                  1.0693         estimate D2E/DX2                !
 ! R2    R(1,3)                  1.3552         estimate D2E/DX2                !
 ! R3    R(1,7)                  1.4001         estimate D2E/DX2                !
 ! R4    R(3,4)                  1.0724         estimate D2E/DX2                !
 ! R5    R(3,5)                  1.4011         estimate D2E/DX2                !
 ! R6    R(5,6)                  1.0698         estimate D2E/DX2                !
 ! R7    R(5,12)                 1.4007         estimate D2E/DX2                !
 ! R8    R(7,8)                  1.067          estimate D2E/DX2                !
 ! R9    R(7,9)                  1.3568         estimate D2E/DX2                !
 ! R10   R(9,10)                 1.0726         estimate D2E/DX2                !
 ! R11   R(9,11)                 1.4665         estimate D2E/DX2                !
 ! R12   R(11,25)                1.4664         estimate D2E/DX2                !
 ! R13   R(11,29)                1.4747         estimate D2E/DX2                !
 ! R14   R(12,13)                1.0719         estimate D2E/DX2                !
 ! R15   R(12,14)                1.5436         estimate D2E/DX2                !
 ! R16   R(14,15)                1.07           estimate D2E/DX2                !
 ! R17   R(14,16)                1.3589         estimate D2E/DX2                !
 ! R18   R(16,17)                1.0703         estimate D2E/DX2                !
 ! R19   R(16,18)                1.5417         estimate D2E/DX2                !
 ! R20   R(18,19)                1.0701         estimate D2E/DX2                !
 ! R21   R(18,20)                1.3525         estimate D2E/DX2                !
 ! R22   R(20,21)                1.0723         estimate D2E/DX2                !
 ! R23   R(20,23)                1.5397         estimate D2E/DX2                !
 ! R24   R(22,23)                1.2883         estimate D2E/DX2                !
 ! R25   R(22,33)                1.4701         estimate D2E/DX2                !
 ! R26   R(22,37)                1.4702         estimate D2E/DX2                !
 ! R27   R(23,24)                1.0691         estimate D2E/DX2                !
 ! R28   R(25,26)                1.0716         estimate D2E/DX2                !
 ! R29   R(25,27)                1.0711         estimate D2E/DX2                !
 ! R30   R(25,28)                1.0701         estimate D2E/DX2                !
 ! R31   R(29,30)                1.0708         estimate D2E/DX2                !
 ! R32   R(29,31)                1.0726         estimate D2E/DX2                !
 ! R33   R(29,32)                1.0701         estimate D2E/DX2                !
 ! R34   R(33,34)                1.0763         estimate D2E/DX2                !
 ! R35   R(33,35)                1.0776         estimate D2E/DX2                !
 ! R36   R(33,36)                1.0692         estimate D2E/DX2                !
 ! R37   R(37,38)                1.0761         estimate D2E/DX2                !
 ! R38   R(37,39)                1.0829         estimate D2E/DX2                !
 ! R39   R(37,40)                1.0761         estimate D2E/DX2                !
 ! A1    A(2,1,3)              120.1843         estimate D2E/DX2                !
 ! A2    A(2,1,7)              119.638          estimate D2E/DX2                !
 ! A3    A(3,1,7)              120.1775         estimate D2E/DX2                !
 ! A4    A(1,3,4)              119.9318         estimate D2E/DX2                !
 ! A5    A(1,3,5)              120.1756         estimate D2E/DX2                !
 ! A6    A(4,3,5)              119.8918         estimate D2E/DX2                !
 ! A7    A(3,5,6)              120.2873         estimate D2E/DX2                !
 ! A8    A(3,5,12)             119.3045         estimate D2E/DX2                !
 ! A9    A(6,5,12)             120.4076         estimate D2E/DX2                !
 ! A10   A(1,7,8)              120.0725         estimate D2E/DX2                !
 ! A11   A(1,7,9)              119.8135         estimate D2E/DX2                !
 ! A12   A(8,7,9)              120.1138         estimate D2E/DX2                !
 ! A13   A(7,9,10)             120.4083         estimate D2E/DX2                !
 ! A14   A(7,9,11)             119.619          estimate D2E/DX2                !
 ! A15   A(10,9,11)            119.9723         estimate D2E/DX2                !
 ! A16   A(9,11,25)            109.3059         estimate D2E/DX2                !
 ! A17   A(9,11,29)            109.8196         estimate D2E/DX2                !
 ! A18   A(25,11,29)           109.2452         estimate D2E/DX2                !
 ! A19   A(5,12,13)            119.676          estimate D2E/DX2                !
 ! A20   A(5,12,14)            120.6883         estimate D2E/DX2                !
 ! A21   A(13,12,14)           119.6356         estimate D2E/DX2                !
 ! A22   A(12,14,15)           120.416          estimate D2E/DX2                !
 ! A23   A(12,14,16)           119.7199         estimate D2E/DX2                !
 ! A24   A(15,14,16)           119.8641         estimate D2E/DX2                !
 ! A25   A(14,16,17)           119.9552         estimate D2E/DX2                !
 ! A26   A(14,16,18)           119.8494         estimate D2E/DX2                !
 ! A27   A(17,16,18)           120.1954         estimate D2E/DX2                !
 ! A28   A(16,18,19)           119.926          estimate D2E/DX2                !
 ! A29   A(16,18,20)           120.274          estimate D2E/DX2                !
 ! A30   A(19,18,20)           119.7995         estimate D2E/DX2                !
 ! A31   A(18,20,21)           120.1715         estimate D2E/DX2                !
 ! A32   A(18,20,23)           119.7917         estimate D2E/DX2                !
 ! A33   A(21,20,23)           120.0368         estimate D2E/DX2                !
 ! A34   A(23,22,33)           121.2612         estimate D2E/DX2                !
 ! A35   A(23,22,37)           118.9276         estimate D2E/DX2                !
 ! A36   A(33,22,37)           119.8093         estimate D2E/DX2                !
 ! A37   A(20,23,22)           119.7666         estimate D2E/DX2                !
 ! A38   A(20,23,24)           120.3512         estimate D2E/DX2                !
 ! A39   A(22,23,24)           119.8809         estimate D2E/DX2                !
 ! A40   A(11,25,26)           109.0669         estimate D2E/DX2                !
 ! A41   A(11,25,27)           109.3327         estimate D2E/DX2                !
 ! A42   A(11,25,28)           109.5527         estimate D2E/DX2                !
 ! A43   A(26,25,27)           109.7807         estimate D2E/DX2                !
 ! A44   A(26,25,28)           109.6581         estimate D2E/DX2                !
 ! A45   A(27,25,28)           109.4353         estimate D2E/DX2                !
 ! A46   A(11,29,30)           109.6132         estimate D2E/DX2                !
 ! A47   A(11,29,31)           109.5319         estimate D2E/DX2                !
 ! A48   A(11,29,32)           109.1179         estimate D2E/DX2                !
 ! A49   A(30,29,31)           109.4136         estimate D2E/DX2                !
 ! A50   A(30,29,32)           109.4529         estimate D2E/DX2                !
 ! A51   A(31,29,32)           109.6979         estimate D2E/DX2                !
 ! A52   A(22,33,34)           109.7979         estimate D2E/DX2                !
 ! A53   A(22,33,35)           108.9854         estimate D2E/DX2                !
 ! A54   A(22,33,36)           109.428          estimate D2E/DX2                !
 ! A55   A(34,33,35)           108.5279         estimate D2E/DX2                !
 ! A56   A(34,33,36)           109.7856         estimate D2E/DX2                !
 ! A57   A(35,33,36)           110.2983         estimate D2E/DX2                !
 ! A58   A(22,37,38)           109.5848         estimate D2E/DX2                !
 ! A59   A(22,37,39)           108.6641         estimate D2E/DX2                !
 ! A60   A(22,37,40)           109.6893         estimate D2E/DX2                !
 ! A61   A(38,37,39)           109.4311         estimate D2E/DX2                !
 ! A62   A(38,37,40)           109.3291         estimate D2E/DX2                !
 ! A63   A(39,37,40)           110.1277         estimate D2E/DX2                !
 ! D1    D(2,1,3,4)           -178.7675         estimate D2E/DX2                !
 ! D2    D(2,1,3,5)              1.5669         estimate D2E/DX2                !
 ! D3    D(7,1,3,4)              1.3831         estimate D2E/DX2                !
 ! D4    D(7,1,3,5)           -178.2824         estimate D2E/DX2                !
 ! D5    D(2,1,7,8)            179.7785         estimate D2E/DX2                !
 ! D6    D(2,1,7,9)             -0.0468         estimate D2E/DX2                !
 ! D7    D(3,1,7,8)             -0.3714         estimate D2E/DX2                !
 ! D8    D(3,1,7,9)            179.8033         estimate D2E/DX2                !
 ! D9    D(1,3,5,6)             -1.8573         estimate D2E/DX2                !
 ! D10   D(1,3,5,12)           177.8699         estimate D2E/DX2                !
 ! D11   D(4,3,5,6)            178.477          estimate D2E/DX2                !
 ! D12   D(4,3,5,12)            -1.7958         estimate D2E/DX2                !
 ! D13   D(3,5,12,13)            1.1308         estimate D2E/DX2                !
 ! D14   D(3,5,12,14)         -178.7515         estimate D2E/DX2                !
 ! D15   D(6,5,12,13)         -179.1424         estimate D2E/DX2                !
 ! D16   D(6,5,12,14)            0.9754         estimate D2E/DX2                !
 ! D17   D(1,7,9,10)            -0.7036         estimate D2E/DX2                !
 ! D18   D(1,7,9,11)           179.0699         estimate D2E/DX2                !
 ! D19   D(8,7,9,10)           179.4712         estimate D2E/DX2                !
 ! D20   D(8,7,9,11)            -0.7553         estimate D2E/DX2                !
 ! D21   D(7,9,11,25)           29.8072         estimate D2E/DX2                !
 ! D22   D(7,9,11,29)          149.6417         estimate D2E/DX2                !
 ! D23   D(10,9,11,25)        -150.4183         estimate D2E/DX2                !
 ! D24   D(10,9,11,29)         -30.5838         estimate D2E/DX2                !
 ! D25   D(9,11,25,26)         -59.8757         estimate D2E/DX2                !
 ! D26   D(9,11,25,27)          60.1721         estimate D2E/DX2                !
 ! D27   D(9,11,25,28)        -179.9068         estimate D2E/DX2                !
 ! D28   D(29,11,25,26)        179.937          estimate D2E/DX2                !
 ! D29   D(29,11,25,27)        -60.0151         estimate D2E/DX2                !
 ! D30   D(29,11,25,28)         59.906          estimate D2E/DX2                !
 ! D31   D(9,11,29,30)         -59.9808         estimate D2E/DX2                !
 ! D32   D(9,11,29,31)          60.073          estimate D2E/DX2                !
 ! D33   D(9,11,29,32)        -179.8288         estimate D2E/DX2                !
 ! D34   D(25,11,29,30)         59.8906         estimate D2E/DX2                !
 ! D35   D(25,11,29,31)        179.9444         estimate D2E/DX2                !
 ! D36   D(25,11,29,32)        -59.9574         estimate D2E/DX2                !
 ! D37   D(5,12,14,15)          -1.4498         estimate D2E/DX2                !
 ! D38   D(5,12,14,16)         178.4986         estimate D2E/DX2                !
 ! D39   D(13,12,14,15)        178.6678         estimate D2E/DX2                !
 ! D40   D(13,12,14,16)         -1.3837         estimate D2E/DX2                !
 ! D41   D(12,14,16,17)         -0.1697         estimate D2E/DX2                !
 ! D42   D(12,14,16,18)        179.7892         estimate D2E/DX2                !
 ! D43   D(15,14,16,17)        179.779          estimate D2E/DX2                !
 ! D44   D(15,14,16,18)         -0.2621         estimate D2E/DX2                !
 ! D45   D(14,16,18,19)         -1.043          estimate D2E/DX2                !
 ! D46   D(14,16,18,20)        179.1886         estimate D2E/DX2                !
 ! D47   D(17,16,18,19)        178.9159         estimate D2E/DX2                !
 ! D48   D(17,16,18,20)         -0.8526         estimate D2E/DX2                !
 ! D49   D(16,18,20,21)          1.2014         estimate D2E/DX2                !
 ! D50   D(16,18,20,23)       -178.8417         estimate D2E/DX2                !
 ! D51   D(19,18,20,21)       -178.5674         estimate D2E/DX2                !
 ! D52   D(19,18,20,23)          1.3896         estimate D2E/DX2                !
 ! D53   D(18,20,23,22)        178.5137         estimate D2E/DX2                !
 ! D54   D(18,20,23,24)         -1.0674         estimate D2E/DX2                !
 ! D55   D(21,20,23,22)         -1.5293         estimate D2E/DX2                !
 ! D56   D(21,20,23,24)        178.8896         estimate D2E/DX2                !
 ! D57   D(33,22,23,20)        179.5533         estimate D2E/DX2                !
 ! D58   D(33,22,23,24)         -0.8636         estimate D2E/DX2                !
 ! D59   D(37,22,23,20)         -0.9509         estimate D2E/DX2                !
 ! D60   D(37,22,23,24)        178.6322         estimate D2E/DX2                !
 ! D61   D(23,22,33,34)          6.2134         estimate D2E/DX2                !
 ! D62   D(23,22,33,35)        124.9646         estimate D2E/DX2                !
 ! D63   D(23,22,33,36)       -114.3475         estimate D2E/DX2                !
 ! D64   D(37,22,33,34)       -173.278          estimate D2E/DX2                !
 ! D65   D(37,22,33,35)        -54.5268         estimate D2E/DX2                !
 ! D66   D(37,22,33,36)         66.161          estimate D2E/DX2                !
 ! D67   D(23,22,37,38)        -95.2551         estimate D2E/DX2                !
 ! D68   D(23,22,37,39)         24.2749         estimate D2E/DX2                !
 ! D69   D(23,22,37,40)        144.7153         estimate D2E/DX2                !
 ! D70   D(33,22,37,38)         84.2482         estimate D2E/DX2                !
 ! D71   D(33,22,37,39)       -156.2218         estimate D2E/DX2                !
 ! D72   D(33,22,37,40)        -35.7814         estimate D2E/DX2                !
 --------------------------------------------------------------------------------
 Trust Radius=3.00D-01 FncErr=1.00D-07 GrdErr=1.00D-06
 Number of steps in this run=    184 maximum allowed number of steps=    240.
 GradGradGradGradGradGradGradGradGradGradGradGradGradGradGradGradGradGrad

 Leave Link  103 at Tue Jun  8 16:10:11 2021, MaxMem=    33554432 cpu:         0.0
 (Enter /opt/app/gaussian09/e01/g09/l202.exe)
                          Input orientation:                          
 ---------------------------------------------------------------------
 Center     Atomic      Atomic             Coordinates (Angstroms)
 Number     Number       Type             X           Y           Z
 ---------------------------------------------------------------------
      1          6           0       -1.819403    0.223858   -0.363623
      2          1           0       -1.809300    1.292095   -0.317531
      3          6           0       -0.654462   -0.467959   -0.391992
      4          1           0       -0.669185   -1.538193   -0.458183
      5          6           0        0.569518    0.210901   -0.328012
      6          1           0        0.592191    1.279634   -0.286373
      7          6           0       -3.042850   -0.456448   -0.391327
      8          1           0       -3.061030   -1.522163   -0.440872
      9          6           0       -4.204790    0.243439   -0.358584
     10          1           0       -4.192046    1.314413   -0.300247
     11          7           0       -5.483733   -0.472396   -0.408465
     12          6           0        1.761463   -0.524608   -0.313379
     13          1           0        1.725627   -1.594413   -0.369491
     14          6           0        3.126533    0.189252   -0.214545
     15          1           0        3.177950    1.257419   -0.179306
     16          6           0        4.269190   -0.545008   -0.171060
     17          1           0        4.219255   -1.613689   -0.202645
     18          6           0        5.634459    0.165016   -0.077257
     19          1           0        5.680401    1.234047   -0.063460
     20          6           0        6.776073   -0.557624   -0.016951
     21          1           0        6.738510   -1.628615   -0.053489
     22          7           0        9.216623   -0.527055    0.189786
     23          6           0        8.131731    0.162347    0.103463
     24          1           0        8.176395    1.230330    0.122483
     25          6           0       -5.323568   -1.794519    0.205260
     26          1           0       -4.578107   -2.343114   -0.334715
     27          1           0       -5.019338   -1.677337    1.225562
     28          1           0       -6.254483   -2.321120    0.169502
     29          6           0       -6.510149    0.285586    0.330894
     30          1           0       -6.208129    0.397752    1.352118
     31          1           0       -6.630357    1.254215   -0.113773
     32          1           0       -7.436989   -0.247646    0.289887
     33          6           0       10.529257    0.126290    0.296198
     34          1           0       10.399902    1.190000    0.397162
     35          1           0       11.034102   -0.242129    1.174083
     36          1           0       11.104605   -0.086829   -0.579398
     37          6           0        9.128352   -1.994612    0.192106
     38          1           0        9.122943   -2.354042    1.206380
     39          1           0        8.208513   -2.287227   -0.298691
     40          1           0        9.973948   -2.409512   -0.328306
 ---------------------------------------------------------------------
                    Distance matrix (angstroms):
                    1          2          3          4          5
     1  C    0.000000
     2  H    1.069278   0.000000
     3  C    1.355176   2.106416   0.000000
     4  H    2.106363   3.054534   1.072380   0.000000
     5  C    2.389222   2.613019   1.401097   2.147245   0.000000
     6  H    2.633707   2.401726   2.149275   3.092044   1.069784
     7  C    1.400146   2.141143   2.388416   2.609392   3.674040
     8  H    2.143874   3.082545   2.627794   2.391961   4.024566
     9  C    2.385473   2.615288   3.621053   3.960382   4.774517
    10  H    2.612041   2.382912   3.962293   4.535730   4.887842
    11  N    3.730161   4.077150   4.829301   4.931356   6.092226
    12  C    3.658597   4.006343   2.417868   2.637494   1.400686
    13  H    3.984141   4.564026   2.633292   2.397113   2.144170
    14  C    4.948303   5.058589   3.841789   4.177428   2.559623
    15  H    5.106443   4.989286   4.208272   4.763787   2.814468
    16  C    6.139968   6.351728   4.929209   5.045434   3.779366
    17  H    6.314101   6.693299   5.010156   4.895696   4.082330
    18  C    7.459592   7.532436   6.328526   6.540792   5.071352
    19  H    7.573482   7.494234   6.567743   6.939623   5.218998
    20  C    8.637887   8.787516   7.440534   7.522504   6.261686
    21  H    8.761605   9.036887   7.491178   7.419293   6.443264
    22  N   11.075378  11.186495   9.888392   9.958488   8.693970
    23  C    9.962279  10.013874   8.822695   8.981281   7.574667
    24  H   10.058094   9.995576   9.007381   9.286882   7.688091
    25  C    4.083706   4.706440   4.890503   4.708412   6.247764
    26  H    3.768372   4.569609   4.349077   3.992845   5.746397
    27  H    4.047176   4.637133   4.809492   4.666710   6.100356
    28  H    5.141116   5.749102   5.925345   5.674726   7.295591
    29  C    4.742284   4.850926   5.948063   6.169738   7.110655
    30  H    4.715392   4.789287   5.885116   6.140437   6.985288
    31  H    4.926393   4.825509   6.225320   6.591793   7.278228
    32  H    5.675092   5.866058   6.820276   6.930244   8.043396
    33  C   12.366660  12.408697  11.220620  11.346573   9.979639
    34  H   12.281027  12.230529  11.205827  11.432381   9.905602
    35  H   12.953542  13.020435  11.795173  11.887430  10.581542
    36  H   12.929543  12.989957  11.766735  11.863528  10.542291
    37  C   11.184086  11.432166   9.918432   9.829697   8.853725
    38  H   11.351009  11.624567  10.085125   9.966050   9.060594
    39  H   10.337739  10.638067   9.048246   8.910668   8.037147
    40  H   12.083833  12.350990  10.804480  10.679530   9.762677
                    6          7          8          9         10
     6  H    0.000000
     7  C    4.029705   0.000000
     8  H    4.606513   1.067020   0.000000
     9  C    4.908150   1.356841   2.105304   0.000000
    10  H    4.784383   2.113030   3.056981   1.072637   0.000000
    11  N    6.324664   2.440996   2.640559   1.466494   2.207454
    12  C    2.150166   4.805429   4.926237   6.015656   6.231087
    13  H    3.090587   4.902429   4.787734   6.208676   6.594309
    14  C    2.759888   6.205600   6.423870   7.332938   7.405061
    15  H    2.588070   6.456055   6.835157   7.454203   7.371209
    16  C    4.106451   7.315893   7.399984   8.512646   8.664101
    17  H    4.640465   7.356152   7.284756   8.627732   8.906923
    18  C    5.168226   8.705202   8.865118   9.843582   9.896010
    19  H    5.093294   8.891590   9.173426   9.939084   9.875613
    20  C    6.456663   9.826578   9.893363  11.015342  11.130337
    21  H    6.803630   9.857135   9.807772  11.106461  11.322515
    22  N    8.824493  12.273441  12.334048  13.454691  13.543395
    23  C    7.631838  11.202632  11.331891  12.345436  12.384090
    24  H    7.595376  11.356966  11.583320  12.429767  12.375948
    25  C    6.684933   2.710724   2.368701   2.392250   3.346840
    26  H    6.313368   2.433049   1.728222   2.613464   3.678007
    27  H    6.520650   2.830443   2.576054   2.619616   3.458767
    28  H    7.749206   3.755811   3.347989   3.325219   4.206116
    29  C    7.198082   3.618615   3.969886   2.406623   2.613508
    30  H    7.050299   3.713254   4.099405   2.638879   2.763181
    31  H    7.224655   3.984171   4.533803   2.639125   2.446173
    32  H    8.193436   4.451529   4.615996   3.332986   3.649376
    33  C   10.020722  13.601999  13.709726  14.749054  14.781209
    34  H    9.831909  13.566137  13.756991  14.654833  14.609134
    35  H   10.652802  14.165345  14.244975  15.323467  15.376346
    36  H   10.604902  14.153533  14.238841  15.314549  15.363233
    37  C    9.155090  12.281877  12.214946  13.530883  13.734083
    38  H    9.391785  12.416120  12.322932  13.668375  13.893034
    39  H    8.410172  11.399714  11.296377  12.668778  12.913003
    40  H   10.081117  13.162654  13.065631  14.424828  14.647313
                   11         12         13         14         15
    11  N    0.000000
    12  C    7.246009   0.000000
    13  H    7.296254   1.071874   0.000000
    14  C    8.637828   1.543626   2.273325   0.000000
    15  H    8.835697   2.280358   3.205988   1.069985   0.000000
    16  C    9.756083   2.511845   2.758684   1.358931   2.107040
    17  H    9.772046   2.690557   2.499278   2.108263   3.054197
    18  C   11.141373   3.940993   4.296505   2.511797   2.690389
    19  H   11.299065   4.302720   4.871763   2.763451   2.505240
    20  C   12.266352   5.023472   5.167806   3.730416   4.033265
    21  H   12.281942   5.104642   5.022950   4.046845   4.585042
    22  N   14.712627   7.472121   7.587297   6.145386   6.307626
    23  C   13.639862   6.420745   6.659433   5.015361   5.081248
    24  H   13.776076   6.664918   7.059293   5.167062   5.007620
    25  C    1.466398   7.216601   7.075418   8.689983   9.040909
    26  H    2.079709   6.595268   6.348135   8.111029   8.552451
    27  H    2.082688   7.048148   6.931494   8.480170   8.819409
    28  H    2.084678   8.228975   8.031237   9.718690  10.094474
    29  C    1.474691   8.336130   8.476611   9.652586   9.750078
    30  H    2.093217   8.193841   8.359255   9.467514   9.548967
    31  H    2.093507   8.580601   8.831905   9.815356   9.808527
    32  H    2.086484   9.222373   9.284508  10.584580  10.731370
    33  C   16.039665   8.813028   8.994880   7.420589   7.453004
    34  H   15.990699   8.835574   9.142415   7.367331   7.245236
    35  H   16.595070   9.395433   9.531998   8.040150   8.111684
    36  H   16.593700   9.357175   9.501690   7.991181   8.049779
    37  C   14.703431   7.529109   7.434776   6.399723   6.791239
    38  H   14.815644   7.736141   7.601361   6.666655   7.092652
    39  H   13.812431   6.683673   6.520185   5.653896   6.155105
    40  H   15.578792   8.426031   8.288600   7.324862   7.723611
                   16         17         18         19         20
    16  C    0.000000
    17  H    1.070313   0.000000
    18  C    1.541717   2.276470   0.000000
    19  H    2.273353   3.203736   1.070107   0.000000
    20  C    2.511647   2.772558   1.352453   2.100653   0.000000
    21  H    2.699179   2.523712   2.106326   3.051971   1.072272
    22  N    4.960608   5.129178   3.658166   3.958596   2.449482
    23  C    3.936360   4.307606   2.503804   2.680564   1.539696
    24  H    4.301656   4.883965   2.763373   2.502913   2.275329
    25  C    9.681111   9.553248  11.135437  11.416294  12.164728
    26  H    9.029653   8.828537  10.519197  10.867688  11.498102
    27  H    9.460944   9.348551  10.890132  11.163429  11.913409
    28  H   10.677933  10.504196  12.148609  12.455318  13.150668
    29  C   10.822938  10.909262  12.152062  12.233748  13.317495
    30  H   10.629350  10.732824  11.930807  12.001683  13.091088
    31  H   11.047200  11.222604  12.313139  12.310878  13.528655
    32  H   11.719024  11.746347  13.083113  13.205536  14.219753
    33  C    6.313273   6.564488   4.909177   4.986771   3.827818
    34  H    6.396777   6.813284   4.897460   4.742130   4.044480
    35  H    6.903997   7.086515   5.557676   5.689703   4.432709
    36  H    6.862913   7.062670   5.498916   5.606505   4.390238
    37  C    5.083768   4.939653   4.116290   4.730531   2.764391
    38  H    5.359930   5.155544   4.490311   5.132053   3.198664
    39  H    4.309278   4.046858   3.562062   4.341204   2.263357
    40  H    6.003779   5.810820   5.051969   5.637394   3.708482
                   21         22         23         24         25
    21  H    0.000000
    22  N    2.722804   0.000000
    23  C    2.274476   1.288301   0.000000
    24  H    3.205003   2.043284   1.069086   0.000000
    25  C   12.065994  14.595338  13.597233  13.834940   0.000000
    26  H   11.342637  13.923640  12.961840  13.253522   1.071561
    27  H   11.827313  14.319866  13.326445  13.557236   1.071124
    28  H   13.013346  15.574794  14.599148  14.861536   1.070135
    29  C   13.391747  15.748386  14.644164  14.718374   2.398040
    30  H   13.179430  15.496105  14.396045  14.460972   2.627506
    31  H   13.676292  15.949667  14.804006  14.808656   3.332306
    32  H   14.246746  16.656257  15.575233  15.684074   2.620406
    33  C    4.191865   1.470099   2.405531   2.604812  15.969028
    34  H    4.642571   2.095574   2.507375   2.240772  16.005365
    35  H    4.677754   2.086444   3.119869   3.382379  16.459705
    36  H    4.660093   2.085646   3.060453   3.286634  16.535319
    37  C    2.430147   1.470211   2.377726   3.363231  14.453312
    38  H    2.792675   2.092874   2.920811   3.862448  14.491963
    39  H    1.629356   2.086409   2.483553   3.542828  13.550422
    40  H    3.339668   2.094183   3.192906   4.084466  15.319168
                   26         27         28         29         30
    26  H    0.000000
    27  H    1.752829   0.000000
    28  H    1.750702   1.747943   0.000000
    29  C    3.329548   2.622216   2.624182   0.000000
    30  H    3.607593   2.394835   2.965299   1.070839   0.000000
    31  H    4.147448   3.603221   3.606182   1.072576   1.749469
    32  H    3.599212   2.960497   2.390002   1.070071   1.747848
    33  C   15.320850  15.680421  16.961716  17.040186  16.772858
    34  H   15.406469  15.705439  17.021996  16.934349  16.654317
    35  H   15.825033  16.117549  17.442091  17.572426  17.255018
    36  H   15.846077  16.302427  17.518301  17.642190  17.426886
    37  C   13.721006  14.188933  15.386317  15.804470  15.565240
    38  H   13.787453  14.158474  15.412379  15.878528  15.576757
    39  H   12.786792  13.329341  14.470612  14.955090  14.757162
    40  H   14.552208  15.091362  16.236305  16.715967  16.509518
                   31         32         33         34         35
    31  H    0.000000
    32  H    1.751908   0.000000
    33  C   17.201531  17.970139   0.000000
    34  H   17.038043  17.895056   1.076293   0.000000
    35  H   17.774440  18.492242   1.077628   1.748373   0.000000
    36  H   17.791687  18.562657   1.069165   1.755155   1.761756
    37  C   16.093022  16.657490   2.543933   3.435206   2.768999
    38  H   16.215079  16.718499   2.993024   3.853011   2.848464
    39  H   15.256738  15.788858   3.400707   4.168634   3.786218
    40  H   17.005055  17.555528   2.669956   3.696516   2.842296
                   36         37         38         39         40
    36  H    0.000000
    37  C    2.853144   0.000000
    38  H    3.500892   1.076090   0.000000
    39  H    3.647999   1.082871   1.762352   0.000000
    40  H    2.595436   1.076106   1.755718   1.769914   0.000000
 Stoichiometry    C15H23N2(1+)
 Framework group  C1[X(C15H23N2)]
 Deg. of freedom   114
 Full point group                 C1      NOp   1
 Largest Abelian subgroup         C1      NOp   1
 Largest concise Abelian subgroup C1      NOp   1
                         Standard orientation:                         
 ---------------------------------------------------------------------
 Center     Atomic      Atomic             Coordinates (Angstroms)
 Number     Number       Type             X           Y           Z
 ---------------------------------------------------------------------
      1          6           0        3.723701   -0.572701   -0.198380
      2          1           0        3.722433   -1.636018   -0.085636
      3          6           0        2.553212    0.104372   -0.288005
      4          1           0        2.559404    1.168472   -0.420861
      5          6           0        1.334496   -0.581304   -0.200536
      6          1           0        1.320735   -1.645519   -0.092396
      7          6           0        4.941290    0.116680   -0.249749
      8          1           0        4.950712    1.177344   -0.365657
      9          6           0        6.108780   -0.568203   -0.155301
     10          1           0        6.104699   -1.633512   -0.030204
     11          7           0        7.381893    0.155801   -0.230167
     12          6           0        0.135926    0.141791   -0.250401
     13          1           0        0.163070    1.206302   -0.372846
     14          6           0       -1.224101   -0.578040   -0.128136
     15          1           0       -1.266503   -1.642377   -0.026863
     16          6           0       -2.373842    0.146101   -0.148370
     17          1           0       -2.332984    1.211164   -0.246052
     18          6           0       -3.734022   -0.570219   -0.031369
     19          1           0       -3.770598   -1.636703    0.048645
     20          6           0       -4.882885    0.143388   -0.034073
     21          1           0       -4.854340    1.210323   -0.137033
     22          7           0       -7.326064    0.101524    0.136470
     23          6           0       -6.233793   -0.581100    0.110254
     24          1           0       -6.269185   -1.646199    0.195435
     25          6           0        7.200070    1.512030    0.297000
     26          1           0        6.458474    2.018373   -0.287719
     27          1           0        6.880586    1.455808    1.317820
     28          1           0        8.126683    2.044600    0.242706
     29          6           0        8.403075   -0.544256    0.570971
     30          1           0        8.085742   -0.595392    1.592431
     31          1           0        8.539071   -1.537533    0.189754
     32          1           0        9.325639   -0.005436    0.510961
     33          6           0       -8.634328   -0.556918    0.263316
     34          1           0       -8.497082   -1.610902    0.432689
     35          1           0       -9.156461   -0.139406    1.108504
     36          1           0       -9.197453   -0.404658   -0.632687
     37          6           0       -7.250995    1.567164    0.048233
     38          1           0       -7.265066    1.989302    1.037966
     39          1           0       -6.326065    1.837674   -0.445669
     40          1           0       -8.091824    1.940306   -0.510136
 ---------------------------------------------------------------------
 Rotational constants (GHZ):      3.1589252      0.0674145      0.0663496
 Leave Link  202 at Tue Jun  8 16:10:11 2021, MaxMem=    33554432 cpu:         0.0
 (Enter /opt/app/gaussian09/e01/g09/l301.exe)
 Standard basis: 6-31G(d,p) (6D, 7F)
 Ernie: Thresh=  0.10000D-02 Tol=  0.10000D-05 Strict=F.
 There are   370 symmetry adapted cartesian basis functions of A   symmetry.
 There are   370 symmetry adapted basis functions of A   symmetry.
   370 basis functions,   637 primitive gaussians,   370 cartesian basis functions
    63 alpha electrons       63 beta electrons
       nuclear repulsion energy       984.4736609551 Hartrees.
 IExCor=  402 DFT=T Ex+Corr=B3LYP ExCW=0 ScaHFX=  0.200000
 ScaDFX=  0.800000  0.720000  1.000000  0.810000 ScalE2=  1.000000  1.000000
 IRadAn=      0 IRanWt=     -1 IRanGd=            0 ICorTp=0 IEmpDi=  4
 NAtoms=   40 NActive=   40 NUniq=   40 SFac= 1.00D+00 NAtFMM=   60 NAOKFM=F Big=F
 Integral buffers will be    131072 words long.
 Raffenetti 2 integral format.
 Two-electron integral symmetry is turned on.
 Leave Link  301 at Tue Jun  8 16:10:12 2021, MaxMem=    33554432 cpu:         0.0
 (Enter /opt/app/gaussian09/e01/g09/l302.exe)
 NPDir=0 NMtPBC=     1 NCelOv=     1 NCel=       1 NClECP=     1 NCelD=      1
         NCelK=      1 NCelE2=     1 NClLst=     1 CellRange=     0.0.
 One-electron integrals computed using PRISM.
 NBasis=   370 RedAO= T EigKep=  1.25D-03  NBF=   370
 NBsUse=   370 1.00D-06 EigRej= -1.00D+00 NBFU=   370
 Precomputing XC quadrature grid using
 IXCGrd= 4 IRadAn=           0 IRanWt=          -1 IRanGd=           0 AccXCQ= 0.00D+00.
 Generated NRdTot=       0 NPtTot=           0 NUsed=           0 NTot=          32
 NSgBfM=   329   329   329   329   329 MxSgAt=    40 MxSgA2=    40.
 Leave Link  302 at Tue Jun  8 16:10:15 2021, MaxMem=    33554432 cpu:         1.1
 (Enter /opt/app/gaussian09/e01/g09/l303.exe)
 DipDrv:  MaxL=1.
 Leave Link  303 at Tue Jun  8 16:10:16 2021, MaxMem=    33554432 cpu:         0.1
 (Enter /opt/app/gaussian09/e01/g09/l401.exe)
 ExpMin= 1.61D-01 ExpMax= 4.17D+03 ExpMxC= 6.27D+02 IAcc=1 IRadAn=         1 AccDes= 0.00D+00
 Harris functional with IExCor=  402 and IRadAn=       1 diagonalized for initial guess.
 HarFok:  IExCor=  402 AccDes= 0.00D+00 IRadAn=         1 IDoV= 1 UseB2=F ITyADJ=14
 ICtDFT=  3500011 ScaDFX=  1.000000  1.000000  1.000000  1.000000
 FoFCou: FMM=F IPFlag=           0 FMFlag=      100000 FMFlg1=           0
         NFxFlg=           0 DoJE=T BraDBF=F KetDBF=T FulRan=T
         wScrn=  0.000000 ICntrl=     500 IOpCl=  0 I1Cent=   200000004 NGrid=           0
         NMat0=    1 NMatS0=      1 NMatT0=    0 NMatD0=    1 NMtDS0=    0 NMtDT0=    0
 Petite list used in FoFCou.
 Harris En= -694.718677101185    
 JPrj=0 DoOrth=F DoCkMO=F.
 Leave Link  401 at Tue Jun  8 16:10:23 2021, MaxMem=    33554432 cpu:         4.2
 (Enter /opt/app/gaussian09/e01/g09/l502.exe)
 Closed shell SCF:
 Using DIIS extrapolation, IDIIS=  1040.
 Integral symmetry usage will be decided dynamically.
 IVT=      434277 IEndB=      434277 NGot=    33554432 MDV=    33274066
 LenX=    33274066 LenY=    33136725
 Requested convergence on RMS density matrix=1.00D-08 within 128 cycles.
 Requested convergence on MAX density matrix=1.00D-06.
 Requested convergence on             energy=1.00D-06.
 No special actions if energy rises.
 Fock matrices will be formed incrementally for  20 cycles.
 Integral accuracy reduced to 1.0D-05 until final iterations.

 Cycle   1  Pass 0  IDiag  1:
 FoFJK:  IHMeth= 1 ICntrl=       0 DoSepK=F KAlg= 0 I1Cent=   0 FoldK=F
 IRaf= 510000000 NMat=   1 IRICut=       1 DoRegI=T DoRafI=F ISym2E= 0.
 FoFCou: FMM=F IPFlag=           0 FMFlag=      100000 FMFlg1=           0
         NFxFlg=           0 DoJE=F BraDBF=F KetDBF=F FulRan=T
         wScrn=  0.000000 ICntrl=       0 IOpCl=  0 I1Cent=           0 NGrid=           0
         NMat0=    1 NMatS0=      1 NMatT0=    0 NMatD0=    1 NMtDS0=    0 NMtDT0=    0
 Symmetry not used in FoFCou.
 E= -694.210760343373    
 DIIS: error= 2.62D-02 at cycle   1 NSaved=   1.
 NSaved= 1 IEnMin= 1 EnMin= -694.210760343373     IErMin= 1 ErrMin= 2.62D-02
 ErrMax= 2.62D-02  0.00D+00 EMaxC= 1.00D-01 BMatC= 3.88D-01 BMatP= 3.88D-01
 IDIUse=3 WtCom= 7.38D-01 WtEn= 2.62D-01
 Coeff-Com:  0.100D+01
 Coeff-En:   0.100D+01
 Coeff:      0.100D+01
 Gap=     0.056 Goal=   None    Shift=    0.000
 GapD=    0.056 DampG=0.500 DampE=0.500 DampFc=0.2500 IDamp=-1.
 Damping current iteration by 2.50D-01
 RMSDP=4.81D-03 MaxDP=2.84D-01              OVMax= 6.15D-01

 Cycle   2  Pass 0  IDiag  1:
 RMSU=  1.18D-03    CP:  9.85D-01
 E= -694.338310130576     Delta-E=       -0.127549787203 Rises=F Damp=T
 DIIS: error= 1.34D-02 at cycle   2 NSaved=   2.
 NSaved= 2 IEnMin= 2 EnMin= -694.338310130576     IErMin= 2 ErrMin= 1.34D-02
 ErrMax= 1.34D-02  0.00D+00 EMaxC= 1.00D-01 BMatC= 1.10D-01 BMatP= 3.88D-01
 IDIUse=3 WtCom= 8.66D-01 WtEn= 1.34D-01
 Coeff-Com: -0.558D+00 0.156D+01
 Coeff-En:   0.321D-03 0.100D+01
 Coeff:     -0.483D+00 0.148D+01
 Gap=     0.004 Goal=   None    Shift=    0.000
 RMSDP=2.09D-03 MaxDP=1.15D-01 DE=-1.28D-01 OVMax= 6.87D-01

 Cycle   3  Pass 0  IDiag  1:
 RMSU=  2.05D-03    CP:  9.64D-01  7.96D-01
 E= -694.361535630036     Delta-E=       -0.023225499460 Rises=F Damp=F
 DIIS: error= 2.12D-02 at cycle   3 NSaved=   3.
 NSaved= 3 IEnMin= 3 EnMin= -694.361535630036     IErMin= 2 ErrMin= 1.34D-02
 ErrMax= 2.12D-02  0.00D+00 EMaxC= 1.00D-01 BMatC= 1.93D-01 BMatP= 1.10D-01
 IDIUse=2 WtCom= 0.00D+00 WtEn= 1.00D+00
 Coeff-En:   0.000D+00 0.467D+00 0.533D+00
 Coeff:      0.000D+00 0.467D+00 0.533D+00
 Gap=     0.251 Goal=   None    Shift=    0.000
 RMSDP=3.91D-03 MaxDP=2.95D-01 DE=-2.32D-02 OVMax= 6.77D-01

 Cycle   4  Pass 0  IDiag  1:
 RMSU=  1.09D-03    CP:  9.55D-01  3.00D+00 -2.58D-01
 E= -693.582983357437     Delta-E=        0.778552272599 Rises=F Damp=F
 DIIS: error= 2.94D-02 at cycle   4 NSaved=   4.
 NSaved= 4 IEnMin= 3 EnMin= -694.361535630036     IErMin= 2 ErrMin= 1.34D-02
 ErrMax= 2.94D-02  0.00D+00 EMaxC= 1.00D-01 BMatC= 5.52D-01 BMatP= 1.10D-01
 IDIUse=2 WtCom= 0.00D+00 WtEn= 1.00D+00
 Coeff-En:   0.000D+00 0.000D+00 0.708D+00 0.292D+00
 Coeff:      0.000D+00 0.000D+00 0.708D+00 0.292D+00
 Gap=     0.033 Goal=   None    Shift=    0.000
 RMSDP=3.08D-03 MaxDP=2.37D-01 DE= 7.79D-01 OVMax= 8.92D-01

 Cycle   5  Pass 0  IDiag  1:
 RMSU=  1.17D-03    CP:  9.73D-01  1.04D+00  2.51D-01  6.84D-02
 E= -694.624551077229     Delta-E=       -1.041567719792 Rises=F Damp=F
 DIIS: error= 5.50D-03 at cycle   5 NSaved=   5.
 NSaved= 5 IEnMin= 5 EnMin= -694.624551077229     IErMin= 5 ErrMin= 5.50D-03
 ErrMax= 5.50D-03  0.00D+00 EMaxC= 1.00D-01 BMatC= 2.56D-02 BMatP= 1.10D-01
 IDIUse=3 WtCom= 9.45D-01 WtEn= 5.50D-02
 Coeff-Com: -0.324D+00 0.589D+00 0.278D+00 0.108D-02 0.456D+00
 Coeff-En:   0.000D+00 0.000D+00 0.000D+00 0.000D+00 0.100D+01
 Coeff:     -0.306D+00 0.556D+00 0.263D+00 0.102D-02 0.486D+00
 Gap=     0.068 Goal=   None    Shift=    0.000
 RMSDP=6.42D-04 MaxDP=3.50D-02 DE=-1.04D+00 OVMax= 8.85D-02

 Cycle   6  Pass 0  IDiag  1:
 RMSU=  4.55D-04    CP:  9.69D-01  1.03D+00  4.28D-01 -4.45D-02  7.99D-01
 E= -694.639774577053     Delta-E=       -0.015223499824 Rises=F Damp=F
 DIIS: error= 4.45D-03 at cycle   6 NSaved=   6.
 NSaved= 6 IEnMin= 6 EnMin= -694.639774577053     IErMin= 6 ErrMin= 4.45D-03
 ErrMax= 4.45D-03  0.00D+00 EMaxC= 1.00D-01 BMatC= 8.09D-03 BMatP= 2.56D-02
 IDIUse=3 WtCom= 9.55D-01 WtEn= 4.45D-02
 Coeff-Com: -0.236D+00 0.358D+00 0.631D-01-0.310D-01 0.320D+00 0.526D+00
 Coeff-En:   0.000D+00 0.000D+00 0.000D+00 0.000D+00 0.282D+00 0.718D+00
 Coeff:     -0.225D+00 0.342D+00 0.603D-01-0.296D-01 0.318D+00 0.535D+00
 Gap=     0.065 Goal=   None    Shift=    0.000
 RMSDP=3.68D-04 MaxDP=1.77D-02 DE=-1.52D-02 OVMax= 6.95D-02

 Cycle   7  Pass 0  IDiag  1:
 RMSU=  1.74D-04    CP:  9.69D-01  1.14D+00  3.61D-01 -6.64D-02  9.38D-01
                    CP:  5.54D-01
 E= -694.650596206168     Delta-E=       -0.010821629115 Rises=F Damp=F
 DIIS: error= 1.67D-03 at cycle   7 NSaved=   7.
 NSaved= 7 IEnMin= 7 EnMin= -694.650596206168     IErMin= 7 ErrMin= 1.67D-03
 ErrMax= 1.67D-03  0.00D+00 EMaxC= 1.00D-01 BMatC= 7.68D-04 BMatP= 8.09D-03
 IDIUse=3 WtCom= 9.83D-01 WtEn= 1.67D-02
 Coeff-Com: -0.847D-01 0.121D+00-0.197D-02-0.951D-02 0.113D+00 0.333D+00
 Coeff-Com:  0.530D+00
 Coeff-En:   0.000D+00 0.000D+00 0.000D+00 0.000D+00 0.000D+00 0.000D+00
 Coeff-En:   0.100D+01
 Coeff:     -0.833D-01 0.119D+00-0.193D-02-0.935D-02 0.111D+00 0.327D+00
 Coeff:      0.537D+00
 Gap=     0.065 Goal=   None    Shift=    0.000
 RMSDP=1.21D-04 MaxDP=6.68D-03 DE=-1.08D-02 OVMax= 3.30D-02

 Cycle   8  Pass 0  IDiag  1:
 RMSU=  8.28D-05    CP:  9.69D-01  1.15D+00  3.49D-01 -4.65D-02  9.48D-01
                    CP:  7.12D-01  7.97D-01
 E= -694.651448460324     Delta-E=       -0.000852254156 Rises=F Damp=F
 DIIS: error= 4.62D-04 at cycle   8 NSaved=   8.
 NSaved= 8 IEnMin= 8 EnMin= -694.651448460324     IErMin= 8 ErrMin= 4.62D-04
 ErrMax= 4.62D-04  0.00D+00 EMaxC= 1.00D-01 BMatC= 1.25D-04 BMatP= 7.68D-04
 IDIUse=3 WtCom= 9.95D-01 WtEn= 4.62D-03
 Coeff-Com: -0.698D-02 0.117D-01-0.132D-01-0.198D-03-0.125D-01 0.940D-01
 Coeff-Com:  0.348D+00 0.579D+00
 Coeff-En:   0.000D+00 0.000D+00 0.000D+00 0.000D+00 0.000D+00 0.000D+00
 Coeff-En:   0.925D-01 0.907D+00
 Coeff:     -0.695D-02 0.116D-01-0.131D-01-0.197D-03-0.124D-01 0.936D-01
 Coeff:      0.347D+00 0.581D+00
 Gap=     0.067 Goal=   None    Shift=    0.000
 RMSDP=3.87D-05 MaxDP=2.24D-03 DE=-8.52D-04 OVMax= 7.02D-03

 Cycle   9  Pass 0  IDiag  1:
 RMSU=  2.54D-05    CP:  9.69D-01  1.15D+00  3.52D-01 -4.91D-02  9.47D-01
                    CP:  7.05D-01  9.08D-01  7.59D-01
 E= -694.651575297058     Delta-E=       -0.000126836734 Rises=F Damp=F
 DIIS: error= 1.30D-04 at cycle   9 NSaved=   9.
 NSaved= 9 IEnMin= 9 EnMin= -694.651575297058     IErMin= 9 ErrMin= 1.30D-04
 ErrMax= 1.30D-04  0.00D+00 EMaxC= 1.00D-01 BMatC= 1.09D-05 BMatP= 1.25D-04
 IDIUse=3 WtCom= 9.99D-01 WtEn= 1.30D-03
 Coeff-Com:  0.311D-02-0.279D-02-0.590D-02 0.264D-04-0.179D-01 0.170D-01
 Coeff-Com:  0.131D+00 0.294D+00 0.582D+00
 Coeff-En:   0.000D+00 0.000D+00 0.000D+00 0.000D+00 0.000D+00 0.000D+00
 Coeff-En:   0.000D+00 0.000D+00 0.100D+01
 Coeff:      0.310D-02-0.279D-02-0.589D-02 0.264D-04-0.179D-01 0.169D-01
 Coeff:      0.130D+00 0.294D+00 0.582D+00
 Gap=     0.067 Goal=   None    Shift=    0.000
 RMSDP=1.66D-05 MaxDP=1.15D-03 DE=-1.27D-04 OVMax= 3.22D-03

 Cycle  10  Pass 0  IDiag  1:
 RMSU=  1.37D-05    CP:  9.69D-01  1.15D+00  3.52D-01 -4.96D-02  9.46D-01
                    CP:  7.12D-01  9.09D-01  8.41D-01  7.92D-01
 E= -694.651583790486     Delta-E=       -0.000008493427 Rises=F Damp=F
 DIIS: error= 8.14D-05 at cycle  10 NSaved=  10.
 NSaved=10 IEnMin=10 EnMin= -694.651583790486     IErMin=10 ErrMin= 8.14D-05
 ErrMax= 8.14D-05  0.00D+00 EMaxC= 1.00D-01 BMatC= 4.41D-06 BMatP= 1.09D-05
 IDIUse=1 WtCom= 1.00D+00 WtEn= 0.00D+00
 Coeff-Com:  0.125D-02-0.136D-02 0.437D-03-0.282D-03-0.316D-02-0.302D-02
 Coeff-Com:  0.582D-02 0.150D-01 0.392D+00 0.593D+00
 Coeff:      0.125D-02-0.136D-02 0.437D-03-0.282D-03-0.316D-02-0.302D-02
 Coeff:      0.582D-02 0.150D-01 0.392D+00 0.593D+00
 Gap=     0.067 Goal=   None    Shift=    0.000
 RMSDP=7.52D-06 MaxDP=3.53D-04 DE=-8.49D-06 OVMax= 1.12D-03

 Initial convergence to 1.0D-05 achieved.  Increase integral accuracy.
 Cycle  11  Pass 1  IDiag  1:
 E= -694.651800867085     Delta-E=       -0.000217076600 Rises=F Damp=F
 DIIS: error= 2.53D-05 at cycle   1 NSaved=   1.
 NSaved= 1 IEnMin= 1 EnMin= -694.651800867085     IErMin= 1 ErrMin= 2.53D-05
 ErrMax= 2.53D-05  0.00D+00 EMaxC= 1.00D-01 BMatC= 6.29D-07 BMatP= 6.29D-07
 IDIUse=1 WtCom= 1.00D+00 WtEn= 0.00D+00
 Coeff-Com:  0.100D+01
 Coeff:      0.100D+01
 Gap=     0.067 Goal=   None    Shift=    0.000
 RMSDP=7.52D-06 MaxDP=3.53D-04 DE=-2.17D-04 OVMax= 1.43D-03

 Cycle  12  Pass 1  IDiag  1:
 RMSU=  1.06D-05    CP:  1.00D+00
 E= -694.651799166077     Delta-E=        0.000001701009 Rises=F Damp=F
 DIIS: error= 6.21D-05 at cycle   2 NSaved=   2.
 NSaved= 2 IEnMin= 1 EnMin= -694.651800867085     IErMin= 1 ErrMin= 2.53D-05
 ErrMax= 6.21D-05  0.00D+00 EMaxC= 1.00D-01 BMatC= 1.95D-06 BMatP= 6.29D-07
 IDIUse=1 WtCom= 1.00D+00 WtEn= 0.00D+00
 Coeff-Com:  0.653D+00 0.347D+00
 Coeff:      0.653D+00 0.347D+00
 Gap=     0.067 Goal=   None    Shift=    0.000
 RMSDP=5.58D-06 MaxDP=3.50D-04 DE= 1.70D-06 OVMax= 1.13D-03

 Cycle  13  Pass 1  IDiag  1:
 RMSU=  4.11D-06    CP:  1.00D+00  6.43D-01
 E= -694.651801520344     Delta-E=       -0.000002354268 Rises=F Damp=F
 DIIS: error= 1.25D-05 at cycle   3 NSaved=   3.
 NSaved= 3 IEnMin= 3 EnMin= -694.651801520344     IErMin= 3 ErrMin= 1.25D-05
 ErrMax= 1.25D-05  0.00D+00 EMaxC= 1.00D-01 BMatC= 7.22D-08 BMatP= 6.29D-07
 IDIUse=1 WtCom= 1.00D+00 WtEn= 0.00D+00
 Coeff-Com:  0.171D+00 0.176D+00 0.653D+00
 Coeff:      0.171D+00 0.176D+00 0.653D+00
 Gap=     0.067 Goal=   None    Shift=    0.000
 RMSDP=1.30D-06 MaxDP=8.45D-05 DE=-2.35D-06 OVMax= 3.19D-04

 Cycle  14  Pass 1  IDiag  1:
 RMSU=  8.76D-07    CP:  1.00D+00  7.05D-01  8.31D-01
 E= -694.651801573989     Delta-E=       -0.000000053644 Rises=F Damp=F
 DIIS: error= 4.95D-06 at cycle   4 NSaved=   4.
 NSaved= 4 IEnMin= 4 EnMin= -694.651801573989     IErMin= 4 ErrMin= 4.95D-06
 ErrMax= 4.95D-06  0.00D+00 EMaxC= 1.00D-01 BMatC= 2.59D-08 BMatP= 7.22D-08
 IDIUse=1 WtCom= 1.00D+00 WtEn= 0.00D+00
 Coeff-Com: -0.229D-02 0.625D-01 0.437D+00 0.503D+00
 Coeff:     -0.229D-02 0.625D-01 0.437D+00 0.503D+00
 Gap=     0.067 Goal=   None    Shift=    0.000
 RMSDP=6.08D-07 MaxDP=3.03D-05 DE=-5.36D-08 OVMax= 1.47D-04

 Cycle  15  Pass 1  IDiag  1:
 RMSU=  2.03D-07    CP:  1.00D+00  6.95D-01  8.88D-01  4.19D-01
 E= -694.651801600704     Delta-E=       -0.000000026715 Rises=F Damp=F
 DIIS: error= 1.44D-06 at cycle   5 NSaved=   5.
 NSaved= 5 IEnMin= 5 EnMin= -694.651801600704     IErMin= 5 ErrMin= 1.44D-06
 ErrMax= 1.44D-06  0.00D+00 EMaxC= 1.00D-01 BMatC= 1.41D-09 BMatP= 2.59D-08
 IDIUse=1 WtCom= 1.00D+00 WtEn= 0.00D+00
 Coeff-Com: -0.694D-02 0.349D-01 0.245D+00 0.316D+00 0.411D+00
 Coeff:     -0.694D-02 0.349D-01 0.245D+00 0.316D+00 0.411D+00
 Gap=     0.067 Goal=   None    Shift=    0.000
 RMSDP=1.62D-07 MaxDP=6.02D-06 DE=-2.67D-08 OVMax= 3.92D-05

 Cycle  16  Pass 1  IDiag  1:
 RMSU=  7.13D-08    CP:  1.00D+00  7.00D-01  8.74D-01  5.09D-01  5.35D-01
 E= -694.651801602657     Delta-E=       -0.000000001953 Rises=F Damp=F
 DIIS: error= 3.22D-07 at cycle   6 NSaved=   6.
 NSaved= 6 IEnMin= 6 EnMin= -694.651801602657     IErMin= 6 ErrMin= 3.22D-07
 ErrMax= 3.22D-07  0.00D+00 EMaxC= 1.00D-01 BMatC= 8.41D-11 BMatP= 1.41D-09
 IDIUse=1 WtCom= 1.00D+00 WtEn= 0.00D+00
 Coeff-Com: -0.358D-02 0.149D-01 0.946D-01 0.130D+00 0.225D+00 0.538D+00
 Coeff:     -0.358D-02 0.149D-01 0.946D-01 0.130D+00 0.225D+00 0.538D+00
 Gap=     0.067 Goal=   None    Shift=    0.000
 RMSDP=3.54D-08 MaxDP=1.87D-06 DE=-1.95D-09 OVMax= 5.94D-06

 Cycle  17  Pass 1  IDiag  1:
 RMSU=  2.63D-08    CP:  1.00D+00  7.00D-01  8.74D-01  5.02D-01  6.08D-01
                    CP:  7.68D-01
 E= -694.651801602740     Delta-E=       -0.000000000083 Rises=F Damp=F
 DIIS: error= 1.32D-07 at cycle   7 NSaved=   7.
 NSaved= 7 IEnMin= 7 EnMin= -694.651801602740     IErMin= 7 ErrMin= 1.32D-07
 ErrMax= 1.32D-07  0.00D+00 EMaxC= 1.00D-01 BMatC= 1.72D-11 BMatP= 8.41D-11
 IDIUse=1 WtCom= 1.00D+00 WtEn= 0.00D+00
 Coeff-Com: -0.768D-03 0.200D-02 0.379D-02 0.959D-02 0.507D-01 0.343D+00
 Coeff-Com:  0.591D+00
 Coeff:     -0.768D-03 0.200D-02 0.379D-02 0.959D-02 0.507D-01 0.343D+00
 Coeff:      0.591D+00
 Gap=     0.067 Goal=   None    Shift=    0.000
 RMSDP=1.61D-08 MaxDP=5.60D-07 DE=-8.25D-11 OVMax= 3.17D-06

 Cycle  18  Pass 1  IDiag  1:
 RMSU=  8.62D-09    CP:  1.00D+00  7.01D-01  8.73D-01  5.07D-01  5.98D-01
                    CP:  8.87D-01  7.80D-01
 E= -694.651801602760     Delta-E=       -0.000000000020 Rises=F Damp=F
 DIIS: error= 3.44D-08 at cycle   8 NSaved=   8.
 NSaved= 8 IEnMin= 8 EnMin= -694.651801602760     IErMin= 8 ErrMin= 3.44D-08
 ErrMax= 3.44D-08  0.00D+00 EMaxC= 1.00D-01 BMatC= 8.61D-13 BMatP= 1.72D-11
 IDIUse=1 WtCom= 1.00D+00 WtEn= 0.00D+00
 Coeff-Com:  0.992D-05-0.535D-03-0.768D-02-0.971D-02 0.291D-02 0.977D-01
 Coeff-Com:  0.258D+00 0.659D+00
 Coeff:      0.992D-05-0.535D-03-0.768D-02-0.971D-02 0.291D-02 0.977D-01
 Coeff:      0.258D+00 0.659D+00
 Gap=     0.067 Goal=   None    Shift=    0.000
 RMSDP=4.54D-09 MaxDP=1.90D-07 DE=-2.02D-11 OVMax= 9.49D-07

 SCF Done:  E(RB3LYP) =  -694.651801603     A.U. after   18 cycles
            NFock= 18  Conv=0.45D-08     -V/T= 2.0096
 KE= 6.880430517470D+02 PE=-3.562198026702D+03 EE= 1.195029512397D+03
 Leave Link  502 at Tue Jun  8 16:15:42 2021, MaxMem=    33554432 cpu:       319.4
 (Enter /opt/app/gaussian09/e01/g09/l601.exe)
 Copying SCF densities to generalized density rwf, IOpCl= 0 IROHF=0.

 **********************************************************************

            Population analysis using the SCF density.

 **********************************************************************

 Orbital symmetries:
       Occupied  (A) (A) (A) (A) (A) (A) (A) (A) (A) (A) (A) (A)
                 (A) (A) (A) (A) (A) (A) (A) (A) (A) (A) (A) (A)
                 (A) (A) (A) (A) (A) (A) (A) (A) (A) (A) (A) (A)
                 (A) (A) (A) (A) (A) (A) (A) (A) (A) (A) (A) (A)
                 (A) (A) (A) (A) (A) (A) (A) (A) (A) (A) (A) (A)
                 (A) (A) (A)
       Virtual   (A) (A) (A) (A) (A) (A) (A) (A) (A) (A) (A) (A)
                 (A) (A) (A) (A) (A) (A) (A) (A) (A) (A) (A) (A)
                 (A) (A) (A) (A) (A) (A) (A) (A) (A) (A) (A) (A)
                 (A) (A) (A) (A) (A) (A) (A) (A) (A) (A) (A) (A)
                 (A) (A) (A) (A) (A) (A) (A) (A) (A) (A) (A) (A)
                 (A) (A) (A) (A) (A) (A) (A) (A) (A) (A) (A) (A)
                 (A) (A) (A) (A) (A) (A) (A) (A) (A) (A) (A) (A)
                 (A) (A) (A) (A) (A) (A) (A) (A) (A) (A) (A) (A)
                 (A) (A) (A) (A) (A) (A) (A) (A) (A) (A) (A) (A)
                 (A) (A) (A) (A) (A) (A) (A) (A) (A) (A) (A) (A)
                 (A) (A) (A) (A) (A) (A) (A) (A) (A) (A) (A) (A)
                 (A) (A) (A) (A) (A) (A) (A) (A) (A) (A) (A) (A)
                 (A) (A) (A) (A) (A) (A) (A) (A) (A) (A) (A) (A)
                 (A) (A) (A) (A) (A) (A) (A) (A) (A) (A) (A) (A)
                 (A) (A) (A) (A) (A) (A) (A) (A) (A) (A) (A) (A)
                 (A) (A) (A) (A) (A) (A) (A) (A) (A) (A) (A) (A)
                 (A) (A) (A) (A) (A) (A) (A) (A) (A) (A) (A) (A)
                 (A) (A) (A) (A) (A) (A) (A) (A) (A) (A) (A) (A)
                 (A) (A) (A) (A) (A) (A) (A) (A) (A) (A) (A) (A)
                 (A) (A) (A) (A) (A) (A) (A) (A) (A) (A) (A) (A)
                 (A) (A) (A) (A) (A) (A) (A) (A) (A) (A) (A) (A)
                 (A) (A) (A) (A) (A) (A) (A) (A) (A) (A) (A) (A)
                 (A) (A) (A) (A) (A) (A) (A) (A) (A) (A) (A) (A)
                 (A) (A) (A) (A) (A) (A) (A) (A) (A) (A) (A) (A)
                 (A) (A) (A) (A) (A) (A) (A) (A) (A) (A) (A) (A)
                 (A) (A) (A) (A) (A) (A) (A)
 The electronic state is 1-A.
 Alpha  occ. eigenvalues --  -14.55145 -14.43769 -10.40285 -10.35865 -10.35563
 Alpha  occ. eigenvalues --  -10.33672 -10.32529 -10.31246 -10.31198 -10.30261
 Alpha  occ. eigenvalues --  -10.29179 -10.29086 -10.28326 -10.27772 -10.27721
 Alpha  occ. eigenvalues --  -10.26895 -10.26421  -1.13490  -1.01517  -0.93174
 Alpha  occ. eigenvalues --   -0.91849  -0.89362  -0.88381  -0.87138  -0.84786
 Alpha  occ. eigenvalues --   -0.80198  -0.79380  -0.75177  -0.73052  -0.70456
 Alpha  occ. eigenvalues --   -0.68926  -0.66763  -0.65851  -0.65268  -0.63975
 Alpha  occ. eigenvalues --   -0.63265  -0.62519  -0.58695  -0.57331  -0.56506
 Alpha  occ. eigenvalues --   -0.55638  -0.55359  -0.55094  -0.54388  -0.53978
 Alpha  occ. eigenvalues --   -0.52177  -0.51724  -0.50003  -0.49321  -0.48421
 Alpha  occ. eigenvalues --   -0.48143  -0.47532  -0.47156  -0.46440  -0.45944
 Alpha  occ. eigenvalues --   -0.44159  -0.44048  -0.43749  -0.42685  -0.39382
 Alpha  occ. eigenvalues --   -0.36308  -0.32516  -0.26789
 Alpha virt. eigenvalues --   -0.20063  -0.14015  -0.08934  -0.05003  -0.04099
 Alpha virt. eigenvalues --   -0.02820  -0.02174  -0.01765   0.00341   0.00657
 Alpha virt. eigenvalues --    0.01019   0.01465   0.02632   0.02753   0.03196
 Alpha virt. eigenvalues --    0.03596   0.04251   0.04587   0.05087   0.05712
 Alpha virt. eigenvalues --    0.05964   0.06634   0.07294   0.07808   0.08356
 Alpha virt. eigenvalues --    0.08738   0.09678   0.10431   0.11415   0.12770
 Alpha virt. eigenvalues --    0.13518   0.13733   0.15914   0.16396   0.18814
 Alpha virt. eigenvalues --    0.19581   0.21810   0.23612   0.24619   0.26290
 Alpha virt. eigenvalues --    0.26856   0.29137   0.30272   0.32437   0.33644
 Alpha virt. eigenvalues --    0.34127   0.35621   0.36921   0.39489   0.40948
 Alpha virt. eigenvalues --    0.41422   0.42598   0.43327   0.43931   0.44653
 Alpha virt. eigenvalues --    0.44959   0.46222   0.46536   0.47759   0.48294
 Alpha virt. eigenvalues --    0.48915   0.49081   0.49410   0.49856   0.50592
 Alpha virt. eigenvalues --    0.51788   0.52267   0.52332   0.53493   0.54425
 Alpha virt. eigenvalues --    0.54933   0.55340   0.56500   0.57094   0.58760
 Alpha virt. eigenvalues --    0.61433   0.62348   0.63582   0.64195   0.65453
 Alpha virt. eigenvalues --    0.67077   0.67613   0.67715   0.70139   0.70499
 Alpha virt. eigenvalues --    0.71369   0.72243   0.73543   0.73865   0.74337
 Alpha virt. eigenvalues --    0.74977   0.75386   0.76195   0.76875   0.76917
 Alpha virt. eigenvalues --    0.77698   0.78870   0.79254   0.80215   0.80540
 Alpha virt. eigenvalues --    0.80793   0.81907   0.82510   0.83712   0.84132
 Alpha virt. eigenvalues --    0.84815   0.85137   0.86686   0.88483   0.89149
 Alpha virt. eigenvalues --    0.90237   0.91363   0.92581   0.92941   0.94580
 Alpha virt. eigenvalues --    0.95444   0.96889   0.97867   1.00213   1.03353
 Alpha virt. eigenvalues --    1.03611   1.07293   1.09716   1.12039   1.13167
 Alpha virt. eigenvalues --    1.14627   1.15973   1.18454   1.19335   1.20147
 Alpha virt. eigenvalues --    1.20346   1.20604   1.21936   1.22219   1.23024
 Alpha virt. eigenvalues --    1.23303   1.24381   1.24885   1.26258   1.28917
 Alpha virt. eigenvalues --    1.29410   1.30814   1.33711   1.36085   1.37354
 Alpha virt. eigenvalues --    1.38775   1.40317   1.41202   1.42959   1.47008
 Alpha virt. eigenvalues --    1.47809   1.56066   1.58641   1.59926   1.61964
 Alpha virt. eigenvalues --    1.63889   1.65958   1.67486   1.68277   1.71111
 Alpha virt. eigenvalues --    1.73415   1.73630   1.73964   1.75608   1.75999
 Alpha virt. eigenvalues --    1.78176   1.78923   1.80281   1.81407   1.82139
 Alpha virt. eigenvalues --    1.83032   1.83470   1.85226   1.86518   1.88142
 Alpha virt. eigenvalues --    1.88843   1.89059   1.89383   1.90736   1.91078
 Alpha virt. eigenvalues --    1.92906   1.93758   1.94173   1.95739   1.96516
 Alpha virt. eigenvalues --    1.96932   1.96971   1.97866   2.00760   2.01547
 Alpha virt. eigenvalues --    2.01654   2.02457   2.03405   2.03523   2.05498
 Alpha virt. eigenvalues --    2.06276   2.07327   2.08343   2.09054   2.11930
 Alpha virt. eigenvalues --    2.12505   2.13129   2.14866   2.16592   2.17514
 Alpha virt. eigenvalues --    2.19481   2.20629   2.21743   2.23579   2.27306
 Alpha virt. eigenvalues --    2.29838   2.30620   2.32487   2.33997   2.35366
 Alpha virt. eigenvalues --    2.35830   2.37370   2.38201   2.38868   2.39369
 Alpha virt. eigenvalues --    2.41463   2.42155   2.43052   2.44830   2.45666
 Alpha virt. eigenvalues --    2.46106   2.47312   2.47501   2.49573   2.50503
 Alpha virt. eigenvalues --    2.50846   2.51180   2.52743   2.53635   2.54007
 Alpha virt. eigenvalues --    2.55048   2.56103   2.57784   2.58147   2.60430
 Alpha virt. eigenvalues --    2.61218   2.61944   2.62433   2.63549   2.64947
 Alpha virt. eigenvalues --    2.68354   2.68798   2.69020   2.70901   2.73433
 Alpha virt. eigenvalues --    2.73831   2.76310   2.77419   2.78423   2.80355
 Alpha virt. eigenvalues --    2.81431   2.82372   2.83711   2.85518   2.86547
 Alpha virt. eigenvalues --    2.88699   2.89004   2.91921   2.92427   2.94370
 Alpha virt. eigenvalues --    2.97825   2.98531   3.09281   3.12552   3.17314
 Alpha virt. eigenvalues --    3.21504   3.26330   3.28233   3.30276   3.30528
 Alpha virt. eigenvalues --    3.32077   3.33357   3.34104   3.35326   3.36756
 Alpha virt. eigenvalues --    3.37355   3.39316   3.41611   3.44044   3.44730
 Alpha virt. eigenvalues --    3.47370   3.49307   3.51549   3.60874   3.61630
 Alpha virt. eigenvalues --    3.88622   3.99677   4.02043   4.04495   4.05013
 Alpha virt. eigenvalues --    4.07244   4.10755   4.15882   4.21829   4.29899
 Alpha virt. eigenvalues --    4.33851   4.37486   4.42150   4.43122   4.47042
 Alpha virt. eigenvalues --    4.53927   4.64519
          Condensed to atoms (all electrons):
               1          2          3          4          5          6
     1  C    4.812143   0.386174   0.533816  -0.050773  -0.012449  -0.006907
     2  H    0.386174   0.615715  -0.051942   0.005620  -0.008024   0.003715
     3  C    0.533816  -0.051942   4.873885   0.391766   0.442358  -0.048269
     4  H   -0.050773   0.005620   0.391766   0.613839  -0.052517   0.004911
     5  C   -0.012449  -0.008024   0.442358  -0.052517   4.828842   0.384425
     6  H   -0.006907   0.003715  -0.048269   0.004911   0.384425   0.606870
     7  C    0.448607  -0.052531  -0.021268  -0.008876   0.004309   0.000473
     8  H   -0.043010   0.005167  -0.008341   0.003663   0.000601   0.000007
     9  C   -0.015928  -0.006642   0.003339   0.000635  -0.000422  -0.000001
    10  H   -0.007469   0.004255   0.000456   0.000007   0.000006   0.000001
    11  N    0.002596   0.000089  -0.000143  -0.000003   0.000001   0.000000
    12  C    0.002893   0.000522  -0.023175  -0.006429   0.516725  -0.049072
    13  H    0.000568   0.000009  -0.007929   0.003564  -0.045985   0.004948
    14  C   -0.000256  -0.000003   0.002874   0.000282  -0.014224  -0.006028
    15  H   -0.000002   0.000001   0.000208   0.000005  -0.003760   0.002699
    16  C    0.000003   0.000000  -0.000191  -0.000003   0.002093   0.000318
    17  H   -0.000000  -0.000000  -0.000001   0.000001   0.000334   0.000010
    18  C   -0.000000   0.000000   0.000001   0.000000  -0.000163  -0.000002
    19  H    0.000000  -0.000000  -0.000000  -0.000000  -0.000001   0.000001
    20  C   -0.000000   0.000000  -0.000000   0.000000   0.000002  -0.000000
    21  H    0.000000   0.000000   0.000000  -0.000000   0.000000   0.000000
    22  N    0.000000   0.000000   0.000000  -0.000000  -0.000000   0.000000
    23  C   -0.000000  -0.000000   0.000000   0.000000  -0.000000   0.000000
    24  H   -0.000000   0.000000   0.000000   0.000000   0.000000  -0.000000
    25  C    0.000913   0.000006  -0.000014  -0.000014  -0.000000  -0.000000
    26  H    0.001169  -0.000012  -0.000009  -0.000013  -0.000000  -0.000000
    27  H   -0.000156  -0.000000  -0.000031  -0.000001  -0.000000  -0.000000
    28  H   -0.000033   0.000000  -0.000000   0.000000   0.000000   0.000000
    29  C   -0.000121  -0.000007   0.000003   0.000000  -0.000000   0.000000
    30  H    0.000010  -0.000001  -0.000001   0.000000  -0.000000  -0.000000
    31  H   -0.000004   0.000001   0.000000  -0.000000   0.000000   0.000000
    32  H    0.000003   0.000000  -0.000000  -0.000000   0.000000   0.000000
    33  C   -0.000000  -0.000000   0.000000   0.000000  -0.000000  -0.000000
    34  H   -0.000000  -0.000000  -0.000000   0.000000   0.000000   0.000000
    35  H    0.000000   0.000000  -0.000000  -0.000000   0.000000   0.000000
    36  H    0.000000   0.000000  -0.000000   0.000000   0.000000   0.000000
    37  C   -0.000000  -0.000000   0.000000   0.000000  -0.000000   0.000000
    38  H   -0.000000  -0.000000  -0.000000  -0.000000   0.000000  -0.000000
    39  H    0.000000   0.000000   0.000000   0.000000  -0.000000   0.000000
    40  H   -0.000000   0.000000   0.000000   0.000000   0.000000  -0.000000
               7          8          9         10         11         12
     1  C    0.448607  -0.043010  -0.015928  -0.007469   0.002596   0.002893
     2  H   -0.052531   0.005167  -0.006642   0.004255   0.000089   0.000522
     3  C   -0.021268  -0.008341   0.003339   0.000456  -0.000143  -0.023175
     4  H   -0.008876   0.003663   0.000635   0.000007  -0.000003  -0.006429
     5  C    0.004309   0.000601  -0.000422   0.000006   0.000001   0.516725
     6  H    0.000473   0.000007  -0.000001   0.000001   0.000000  -0.049072
     7  C    4.871308   0.388995   0.548051  -0.048810  -0.034171  -0.000323
     8  H    0.388995   0.617961  -0.054095   0.005301  -0.008656  -0.000005
     9  C    0.548051  -0.054095   4.842051   0.382863   0.309349   0.000006
    10  H   -0.048810   0.005301   0.382863   0.577521  -0.040839   0.000000
    11  N   -0.034171  -0.008656   0.309349  -0.040839   6.832041  -0.000000
    12  C   -0.000323  -0.000005   0.000006   0.000000  -0.000000   4.952611
    13  H   -0.000002   0.000001  -0.000000  -0.000000   0.000000   0.385155
    14  C    0.000003   0.000000  -0.000000   0.000000   0.000000   0.411564
    15  H   -0.000000  -0.000000   0.000000  -0.000000  -0.000000  -0.037352
    16  C   -0.000000   0.000000  -0.000000   0.000000   0.000000  -0.024569
    17  H    0.000000  -0.000000   0.000000   0.000000  -0.000000  -0.007910
    18  C    0.000000   0.000000  -0.000000  -0.000000   0.000000   0.002594
    19  H   -0.000000   0.000000   0.000000   0.000000  -0.000000   0.000113
    20  C    0.000000  -0.000000   0.000000   0.000000   0.000000  -0.000150
    21  H   -0.000000   0.000000   0.000000   0.000000   0.000000  -0.000003
    22  N    0.000000   0.000000   0.000000   0.000000   0.000000  -0.000000
    23  C    0.000000   0.000000   0.000000   0.000000   0.000000   0.000001
    24  H    0.000000   0.000000   0.000000   0.000000   0.000000  -0.000000
    25  C   -0.011391  -0.000570  -0.051138   0.004129   0.300377   0.000000
    26  H   -0.002748  -0.002087  -0.012337  -0.000293  -0.031495   0.000000
    27  H    0.005690   0.000891  -0.007349   0.000329  -0.050160   0.000000
    28  H    0.000516   0.000024   0.006384  -0.000162  -0.035641  -0.000000
    29  C    0.003191   0.000172  -0.046062  -0.003574   0.291926   0.000000
    30  H    0.000856   0.000013  -0.006591   0.000873  -0.048555   0.000000
    31  H    0.000141   0.000003  -0.003570   0.003509  -0.034197  -0.000000
    32  H   -0.000200  -0.000004   0.004522   0.000010  -0.035338  -0.000000
    33  C    0.000000   0.000000   0.000000   0.000000   0.000000   0.000000
    34  H    0.000000   0.000000   0.000000   0.000000   0.000000   0.000000
    35  H    0.000000   0.000000   0.000000   0.000000   0.000000   0.000000
    36  H    0.000000   0.000000   0.000000   0.000000   0.000000   0.000000
    37  C    0.000000   0.000000   0.000000   0.000000   0.000000   0.000000
    38  H    0.000000   0.000000   0.000000   0.000000   0.000000   0.000000
    39  H   -0.000000  -0.000000   0.000000   0.000000   0.000000   0.000000
    40  H    0.000000   0.000000   0.000000   0.000000   0.000000  -0.000000
              13         14         15         16         17         18
     1  C    0.000568  -0.000256  -0.000002   0.000003  -0.000000  -0.000000
     2  H    0.000009  -0.000003   0.000001   0.000000  -0.000000   0.000000
     3  C   -0.007929   0.002874   0.000208  -0.000191  -0.000001   0.000001
     4  H    0.003564   0.000282   0.000005  -0.000003   0.000001   0.000000
     5  C   -0.045985  -0.014224  -0.003760   0.002093   0.000334  -0.000163
     6  H    0.004948  -0.006028   0.002699   0.000318   0.000010  -0.000002
     7  C   -0.000002   0.000003  -0.000000  -0.000000   0.000000   0.000000
     8  H    0.000001   0.000000  -0.000000   0.000000  -0.000000   0.000000
     9  C   -0.000000  -0.000000   0.000000  -0.000000   0.000000  -0.000000
    10  H   -0.000000   0.000000  -0.000000   0.000000   0.000000  -0.000000
    11  N    0.000000   0.000000  -0.000000   0.000000  -0.000000   0.000000
    12  C    0.385155   0.411564  -0.037352  -0.024569  -0.007910   0.002594
    13  H    0.601407  -0.044007   0.003362  -0.003970   0.003259   0.000144
    14  C   -0.044007   4.842098   0.382473   0.539489  -0.044871  -0.016408
    15  H    0.003362   0.382473   0.597391  -0.053578   0.005498  -0.008121
    16  C   -0.003970   0.539489  -0.053578   4.897322   0.386632   0.423531
    17  H    0.003259  -0.044871   0.005498   0.386632   0.594667  -0.044727
    18  C    0.000144  -0.016408  -0.008121   0.423531  -0.044727   4.826216
    19  H    0.000003  -0.003855   0.003239  -0.034688   0.003332   0.384483
    20  C   -0.000001   0.002357   0.000445  -0.025955  -0.004414   0.538664
    21  H    0.000001   0.000389   0.000014  -0.008040   0.003534  -0.032937
    22  N    0.000000   0.000001  -0.000000  -0.000081  -0.000000   0.001902
    23  C   -0.000000  -0.000176  -0.000001   0.002545   0.000140  -0.020879
    24  H   -0.000000   0.000002   0.000001   0.000039   0.000003  -0.002799
    25  C    0.000000  -0.000000   0.000000   0.000000   0.000000  -0.000000
    26  H    0.000000  -0.000000   0.000000   0.000000   0.000000   0.000000
    27  H   -0.000000   0.000000   0.000000  -0.000000  -0.000000  -0.000000
    28  H    0.000000   0.000000  -0.000000  -0.000000   0.000000  -0.000000
    29  C    0.000000  -0.000000   0.000000   0.000000   0.000000   0.000000
    30  H    0.000000   0.000000   0.000000  -0.000000  -0.000000  -0.000000
    31  H    0.000000  -0.000000  -0.000000   0.000000   0.000000   0.000000
    32  H   -0.000000   0.000000   0.000000  -0.000000  -0.000000   0.000000
    33  C    0.000000  -0.000000  -0.000000   0.000001  -0.000000  -0.000058
    34  H    0.000000   0.000000  -0.000000   0.000000  -0.000000  -0.000010
    35  H   -0.000000  -0.000000   0.000000  -0.000000   0.000000   0.000003
    36  H   -0.000000  -0.000000   0.000000  -0.000000   0.000000   0.000004
    37  C    0.000000  -0.000000   0.000000  -0.000004  -0.000006   0.001591
    38  H   -0.000000  -0.000000  -0.000000  -0.000003  -0.000000  -0.000057
    39  H    0.000000  -0.000000  -0.000000  -0.000052  -0.000015   0.001632
    40  H   -0.000000   0.000000   0.000000   0.000000   0.000000  -0.000039
              19         20         21         22         23         24
     1  C    0.000000  -0.000000   0.000000   0.000000  -0.000000  -0.000000
     2  H   -0.000000   0.000000   0.000000   0.000000  -0.000000   0.000000
     3  C   -0.000000  -0.000000   0.000000   0.000000   0.000000   0.000000
     4  H   -0.000000   0.000000  -0.000000  -0.000000   0.000000   0.000000
     5  C   -0.000001   0.000002   0.000000  -0.000000  -0.000000   0.000000
     6  H    0.000001  -0.000000   0.000000   0.000000   0.000000  -0.000000
     7  C   -0.000000   0.000000  -0.000000   0.000000   0.000000   0.000000
     8  H    0.000000  -0.000000   0.000000   0.000000   0.000000   0.000000
     9  C    0.000000   0.000000   0.000000   0.000000   0.000000   0.000000
[...]
     8  H    0.000001  -0.000000  -0.000000   0.000000  -0.000000   0.000000
     9  C   -0.000000  -0.000000   0.000000  -0.000000   0.000000   0.000000
    10  H   -0.000000   0.000000  -0.000000   0.000000   0.000000  -0.000000
    11  N    0.000000   0.000000   0.000000  -0.000000  -0.000000   0.000000
    12  C    0.386314   0.483033  -0.051255  -0.023445  -0.006651   0.002996
    13  H    0.610493  -0.050243   0.005354  -0.006708   0.003798   0.000349
    14  C   -0.050243   4.834742   0.378840   0.475029  -0.049139  -0.006223
    15  H    0.005354   0.378840   0.618228  -0.052018   0.005314  -0.007397
    16  C   -0.006708   0.475029  -0.052018   4.892821   0.386269   0.502320
    17  H    0.003798  -0.049139   0.005314   0.386269   0.612084  -0.051110
    18  C    0.000349  -0.006223  -0.007397   0.502320  -0.051110   4.788781
    19  H    0.000009  -0.007832   0.005016  -0.048689   0.005465   0.379727
    20  C    0.000001   0.003311   0.000383  -0.026751  -0.007191   0.484426
    21  H    0.000001   0.000298   0.000009  -0.006658   0.003739  -0.040638
    22  N    0.000000   0.000001  -0.000000  -0.000119   0.000001   0.001913
    23  C   -0.000000  -0.000267   0.000001   0.002406   0.000361  -0.004909
    24  H   -0.000000   0.000004   0.000002   0.000297   0.000009  -0.006802
    25  C    0.000000  -0.000000   0.000000   0.000000   0.000000   0.000000
    26  H    0.000000   0.000000   0.000000  -0.000000  -0.000000  -0.000000
    27  H    0.000000   0.000000   0.000000  -0.000000  -0.000000  -0.000000
    28  H   -0.000000   0.000000  -0.000000   0.000000   0.000000   0.000000
    29  C    0.000000  -0.000000   0.000000   0.000000   0.000000  -0.000000
    30  H   -0.000000   0.000000   0.000000  -0.000000  -0.000000   0.000000
    31  H    0.000000   0.000000   0.000000   0.000000   0.000000   0.000000
    32  H   -0.000000   0.000000   0.000000  -0.000000  -0.000000   0.000000
    33  C    0.000000  -0.000000   0.000000   0.000001   0.000000  -0.000061
    34  H    0.000000   0.000000   0.000000   0.000000   0.000000  -0.000008
    35  H   -0.000000  -0.000000  -0.000000  -0.000000  -0.000000   0.000003
    36  H   -0.000000  -0.000000  -0.000000  -0.000000  -0.000000   0.000003
    37  C    0.000000   0.000000  -0.000000   0.000001  -0.000003   0.000217
    38  H    0.000000  -0.000000  -0.000000  -0.000011  -0.000001   0.000097
    39  H    0.000000  -0.000000  -0.000000  -0.000012  -0.000001   0.000108
    40  H   -0.000000   0.000000   0.000000  -0.000000   0.000000  -0.000011
              19         20         21         22         23         24
     1  C    0.000000  -0.000000   0.000000   0.000000   0.000000  -0.000000
     2  H   -0.000000   0.000000   0.000000   0.000000  -0.000000   0.000000
     3  C   -0.000000  -0.000000   0.000000  -0.000000  -0.000000   0.000000
     4  H   -0.000000   0.000000  -0.000000  -0.000000   0.000000   0.000000
     5  C   -0.000000   0.000002  -0.000000   0.000000  -0.000000   0.000000
     6  H    0.000001  -0.000000  -0.000000   0.000000   0.000000  -0.000000
     7  C    0.000000   0.000000  -0.000000   0.000000   0.000000   0.000000
     8  H    0.000000  -0.000000   0.000000   0.000000   0.000000  -0.000000
     9  C   -0.000000   0.000000   0.000000   0.000000  -0.000000   0.000000
    10  H    0.000000   0.000000  -0.000000   0.000000   0.000000   0.000000
    11  N    0.000000   0.000000   0.000000   0.000000   0.000000   0.000000
    12  C    0.000402  -0.000225   0.000002  -0.000000   0.000002   0.000000
    13  H    0.000009   0.000001   0.000001   0.000000  -0.000000  -0.000000
    14  C   -0.007832   0.003311   0.000298   0.000001  -0.000267   0.000004
    15  H    0.005016   0.000383   0.000009  -0.000000   0.000001   0.000002
    16  C   -0.048689  -0.026751  -0.006658  -0.000119   0.002406   0.000297
    17  H    0.005465  -0.007191   0.003739   0.000001   0.000361   0.000009
    18  C    0.379727   0.484426  -0.040638   0.001913  -0.004909  -0.006802
    19  H    0.618552  -0.056081   0.005118   0.000164  -0.006636   0.005247
    20  C   -0.056081   4.911985   0.382306  -0.040464   0.511988  -0.044679
    21  H    0.005118   0.382306   0.597477  -0.008308  -0.047689   0.004791
    22  N    0.000164  -0.040464  -0.008308   6.735158   0.385657  -0.048586
    23  C   -0.006636   0.511988  -0.047689   0.385657   4.705608   0.382298
    24  H    0.005247  -0.044679   0.004791  -0.048586   0.382298   0.574014
    25  C    0.000000   0.000000   0.000000   0.000000   0.000000   0.000000
    26  H   -0.000000   0.000000  -0.000000   0.000000   0.000000   0.000000
    27  H   -0.000000   0.000000   0.000000   0.000000   0.000000   0.000000
    28  H    0.000000   0.000000   0.000000   0.000000   0.000000   0.000000
    29  C   -0.000000   0.000000   0.000000   0.000000   0.000000   0.000000
    30  H    0.000000   0.000000   0.000000   0.000000   0.000000   0.000000
    31  H    0.000000   0.000000   0.000000   0.000000   0.000000   0.000000
    32  H    0.000000   0.000000   0.000000   0.000000   0.000000   0.000000
    33  C   -0.000006   0.004403  -0.000013   0.299893  -0.037641  -0.007419
    34  H   -0.000001   0.000338   0.000000  -0.032375  -0.002826   0.006099
    35  H    0.000000  -0.000136   0.000001  -0.040894   0.000527   0.000189
    36  H    0.000000  -0.000139   0.000001  -0.040765   0.000582   0.000195
    37  C    0.000013  -0.003980   0.005804   0.290169  -0.047734   0.004719
    38  H   -0.000001   0.003575   0.000305  -0.038281  -0.004353  -0.000093
    39  H   -0.000001   0.003668   0.000303  -0.038028  -0.004477  -0.000089
    40  H    0.000000   0.000141   0.000043  -0.031962   0.004360  -0.000170
              25         26         27         28         29         30
     1  C    0.000217   0.000097   0.000108  -0.000011  -0.000061   0.000003
     2  H    0.000013  -0.000001  -0.000001   0.000000  -0.000006   0.000000
     3  C    0.000001  -0.000011  -0.000012  -0.000000   0.000001  -0.000000
     4  H   -0.000003  -0.000001  -0.000001   0.000000   0.000000  -0.000000
     5  C    0.000000  -0.000000  -0.000000   0.000000  -0.000000  -0.000000
     6  H   -0.000000  -0.000000  -0.000000   0.000000   0.000000  -0.000000
     7  C   -0.003980   0.003574   0.003670   0.000141   0.004404  -0.000139
     8  H    0.005804   0.000305   0.000303   0.000043  -0.000013   0.000001
     9  C   -0.047735  -0.004352  -0.004480   0.004360  -0.037644   0.000586
    10  H    0.004719  -0.000094  -0.000089  -0.000170  -0.007420   0.000195
    11  N    0.290175  -0.038290  -0.038021  -0.031961   0.299901  -0.040758
    12  C    0.000000   0.000000   0.000000  -0.000000   0.000000   0.000000
    13  H    0.000000   0.000000   0.000000  -0.000000   0.000000  -0.000000
    14  C   -0.000000   0.000000   0.000000   0.000000  -0.000000   0.000000
    15  H    0.000000   0.000000   0.000000  -0.000000   0.000000   0.000000
    16  C    0.000000  -0.000000  -0.000000   0.000000   0.000000  -0.000000
    17  H    0.000000  -0.000000  -0.000000   0.000000   0.000000  -0.000000
    18  C    0.000000  -0.000000  -0.000000   0.000000  -0.000000   0.000000
    19  H    0.000000  -0.000000  -0.000000   0.000000  -0.000000   0.000000
    20  C    0.000000   0.000000   0.000000   0.000000   0.000000   0.000000
    21  H    0.000000  -0.000000   0.000000   0.000000   0.000000   0.000000
    22  N    0.000000   0.000000   0.000000   0.000000   0.000000   0.000000
    23  C    0.000000   0.000000   0.000000   0.000000   0.000000   0.000000
    24  H    0.000000   0.000000   0.000000   0.000000   0.000000   0.000000
    25  C    4.824291   0.386338   0.386179   0.391475  -0.042642  -0.001745
    26  H    0.386338   0.560715  -0.038598  -0.026195   0.002103  -0.000397
    27  H    0.386179  -0.038598   0.560357  -0.025884   0.002196   0.001183
    28  H    0.391475  -0.026195  -0.025884   0.541194  -0.002760   0.001106
    29  C   -0.042642   0.002103   0.002196  -0.002760   4.808116   0.388607
    30  H   -0.001745  -0.000397   0.001183   0.001106   0.388607   0.562548
    31  H    0.004106  -0.000199  -0.000199   0.000240   0.388669  -0.025902
    32  H   -0.001612   0.001254  -0.000384   0.000884   0.388622  -0.038893
    33  C    0.000000   0.000000   0.000000   0.000000   0.000000   0.000000
    34  H    0.000000   0.000000   0.000000   0.000000   0.000000   0.000000
    35  H    0.000000   0.000000   0.000000   0.000000   0.000000   0.000000
    36  H    0.000000   0.000000   0.000000   0.000000   0.000000   0.000000
    37  C    0.000000   0.000000   0.000000   0.000000   0.000000   0.000000
    38  H    0.000000   0.000000   0.000000   0.000000   0.000000   0.000000
    39  H    0.000000   0.000000   0.000000   0.000000   0.000000   0.000000
    40  H    0.000000   0.000000   0.000000   0.000000   0.000000   0.000000
              31         32         33         34         35         36
     1  C   -0.000008   0.000003  -0.000000   0.000000   0.000000   0.000000
     2  H   -0.000001   0.000000  -0.000000   0.000000   0.000000   0.000000
     3  C    0.000000  -0.000000   0.000000   0.000000  -0.000000  -0.000000
     4  H    0.000000  -0.000000   0.000000   0.000000  -0.000000  -0.000000
     5  C    0.000000  -0.000000  -0.000000   0.000000   0.000000   0.000000
     6  H    0.000000  -0.000000   0.000000   0.000000   0.000000   0.000000
     7  C    0.000338  -0.000136   0.000000   0.000000   0.000000   0.000000
     8  H    0.000000   0.000001   0.000000   0.000000   0.000000   0.000000
     9  C   -0.002827   0.000522   0.000000   0.000000   0.000000   0.000000
    10  H    0.006099   0.000189   0.000000   0.000000   0.000000   0.000000
    11  N   -0.032375  -0.040902   0.000000   0.000000   0.000000   0.000000
    12  C   -0.000000   0.000000   0.000000  -0.000000   0.000000   0.000000
    13  H    0.000000  -0.000000   0.000000   0.000000  -0.000000  -0.000000
    14  C    0.000000   0.000000  -0.000000   0.000000  -0.000000  -0.000000
    15  H    0.000000   0.000000   0.000000   0.000000  -0.000000  -0.000000
    16  C    0.000000  -0.000000   0.000001   0.000000  -0.000000  -0.000000
    17  H    0.000000  -0.000000   0.000000   0.000000  -0.000000  -0.000000
    18  C    0.000000   0.000000  -0.000061  -0.000008   0.000003   0.000003
    19  H    0.000000   0.000000  -0.000006  -0.000001   0.000000   0.000000
    20  C    0.000000   0.000000   0.004403   0.000338  -0.000136  -0.000139
    21  H    0.000000   0.000000  -0.000013   0.000000   0.000001   0.000001
    22  N    0.000000   0.000000   0.299893  -0.032375  -0.040894  -0.040765
    23  C    0.000000   0.000000  -0.037641  -0.002826   0.000527   0.000582
    24  H    0.000000   0.000000  -0.007419   0.006099   0.000189   0.000195
    25  C    0.004106  -0.001612   0.000000   0.000000   0.000000   0.000000
    26  H   -0.000199   0.001254   0.000000   0.000000   0.000000   0.000000
    27  H   -0.000199  -0.000384   0.000000   0.000000   0.000000   0.000000
    28  H    0.000240   0.000884   0.000000   0.000000   0.000000   0.000000
    29  C    0.388669   0.388622   0.000000   0.000000   0.000000   0.000000
    30  H   -0.025902  -0.038893   0.000000   0.000000   0.000000   0.000000
    31  H    0.545395  -0.026031   0.000000   0.000000   0.000000   0.000000
    32  H   -0.026031   0.562805   0.000000   0.000000   0.000000   0.000000
    33  C    0.000000   0.000000   4.808125   0.388668   0.388625   0.388606
    34  H    0.000000   0.000000   0.388668   0.545388  -0.026022  -0.025908
    35  H    0.000000   0.000000   0.388625  -0.026022   0.562777  -0.038892
    36  H    0.000000   0.000000   0.388606  -0.025908  -0.038892   0.562556
    37  C    0.000000   0.000000  -0.042645   0.004106  -0.001618  -0.001741
    38  H    0.000000   0.000000   0.002106  -0.000199   0.001252  -0.000397
    39  H    0.000000   0.000000   0.002193  -0.000199  -0.000385   0.001186
    40  H    0.000000   0.000000  -0.002760   0.000240   0.000890   0.001099
              37         38         39         40
     1  C    0.000000  -0.000000  -0.000000   0.000000
     2  H    0.000000  -0.000000  -0.000000   0.000000
     3  C    0.000000  -0.000000  -0.000000   0.000000
     4  H    0.000000  -0.000000  -0.000000   0.000000
     5  C   -0.000000   0.000000   0.000000   0.000000
     6  H    0.000000   0.000000   0.000000  -0.000000
     7  C    0.000000   0.000000   0.000000   0.000000
     8  H    0.000000  -0.000000   0.000000   0.000000
     9  C    0.000000   0.000000   0.000000   0.000000
    10  H    0.000000   0.000000   0.000000   0.000000
    11  N    0.000000   0.000000   0.000000   0.000000
    12  C    0.000000   0.000000   0.000000  -0.000000
    13  H    0.000000   0.000000   0.000000  -0.000000
    14  C    0.000000  -0.000000  -0.000000   0.000000
    15  H   -0.000000  -0.000000  -0.000000   0.000000
    16  C    0.000001  -0.000011  -0.000012  -0.000000
    17  H   -0.000003  -0.000001  -0.000001   0.000000
    18  C    0.000217   0.000097   0.000108  -0.000011
    19  H    0.000013  -0.000001  -0.000001   0.000000
    20  C   -0.003980   0.003575   0.003668   0.000141
    21  H    0.005804   0.000305   0.000303   0.000043
    22  N    0.290169  -0.038281  -0.038028  -0.031962
    23  C   -0.047734  -0.004353  -0.004477   0.004360
    24  H    0.004719  -0.000093  -0.000089  -0.000170
    25  C    0.000000   0.000000   0.000000   0.000000
    26  H    0.000000   0.000000   0.000000   0.000000
    27  H    0.000000   0.000000   0.000000   0.000000
    28  H    0.000000   0.000000   0.000000   0.000000
    29  C    0.000000   0.000000   0.000000   0.000000
    30  H    0.000000   0.000000   0.000000   0.000000
    31  H    0.000000   0.000000   0.000000   0.000000
    32  H    0.000000   0.000000   0.000000   0.000000
    33  C   -0.042645   0.002106   0.002193  -0.002760
    34  H    0.004106  -0.000199  -0.000199   0.000240
    35  H   -0.001618   0.001252  -0.000385   0.000890
    36  H   -0.001741  -0.000397   0.001186   0.001099
    37  C    4.824303   0.386337   0.386181   0.391477
    38  H    0.386337   0.560687  -0.038595  -0.026187
    39  H    0.386181  -0.038595   0.560365  -0.025892
    40  H    0.391477  -0.026187  -0.025892   0.541191
 Mulliken charges:
               1
     1  C   -0.043504
     2  H    0.099530
     3  C   -0.097984
     4  H    0.096710
     5  C   -0.050871
     6  H    0.099542
     7  C   -0.126877
     8  H    0.103107
     9  C    0.162737
    10  H    0.129973
    11  N   -0.393179
    12  C   -0.091004
    13  H    0.098070
    14  C   -0.050874
    15  H    0.099543
    16  C   -0.097986
    17  H    0.096711
    18  C   -0.043502
    19  H    0.099531
    20  C   -0.126882
    21  H    0.103108
    22  N   -0.393174
    23  C    0.162743
    24  H    0.129977
    25  C   -0.195602
    26  H    0.153752
    27  H    0.153674
    28  H    0.147539
    29  C   -0.192072
    30  H    0.153603
    31  H    0.142696
    32  H    0.153678
    33  C   -0.192077
    34  H    0.142700
    35  H    0.153682
    36  H    0.153612
    37  C   -0.195605
    38  H    0.153759
    39  H    0.153676
    40  H    0.147541
 Sum of Mulliken charges =   1.00000
 Mulliken charges with hydrogens summed into heavy atoms:
               1
     1  C    0.056025
     3  C   -0.001274
     5  C    0.048671
     7  C   -0.023770
     9  C    0.292710
    11  N   -0.393179
    12  C    0.007066
    14  C    0.048669
    16  C   -0.001276
    18  C    0.056030
    20  C   -0.023774
    22  N   -0.393174
    23  C    0.292721
    25  C    0.259362
    29  C    0.257905
    33  C    0.257917
    37  C    0.259370
 Electronic spatial extent (au):  <R**2>=          15784.7827
 Charge=              1.0000 electrons
 Dipole moment (field-independent basis, Debye):
    X=             -0.0013    Y=             -1.0678    Z=             -0.0000  Tot=              1.0678
 Quadrupole moment (field-independent basis, Debye-Ang):
   XX=            149.0817   YY=            -85.4932   ZZ=           -107.3355
   XY=              0.0001   XZ=             -0.0520   YZ=             -0.0005
 Traceless Quadrupole moment (field-independent basis, Debye-Ang):
   XX=            163.6640   YY=            -70.9109   ZZ=            -92.7531
   XY=              0.0001   XZ=             -0.0520   YZ=             -0.0005
 Octapole moment (field-independent basis, Debye-Ang**2):
  XXX=             -0.0966  YYY=             -3.7002  ZZZ=             -0.0004  XYY=             -0.0008
  XXY=            -43.1098  XXZ=              0.0003  XZZ=             -0.0016  YZZ=              0.7447
  YYZ=              0.0017  XYZ=              0.2215
 Hexadecapole moment (field-independent basis, Debye-Ang**3):
 XXXX=          -3702.2139 YYYY=           -495.4744 ZZZZ=           -133.5238 XXXY=             -0.0002
 XXXZ=             -2.1700 YYYX=              0.0010 YYYZ=             -0.0031 ZZZX=             -0.4906
 ZZZY=              0.0006 XXYY=          -2863.3325 XXZZ=          -3444.7653 YYZZ=           -112.4291
 XXYZ=              0.0197 YYXZ=              0.0126 ZZXY=             -0.0012
 N-N= 9.805913220406D+02 E-N=-3.554355401958D+03  KE= 6.878008146400D+02
 No NMR shielding tensors so no spin-rotation constants.
 Leave Link  601 at Tue Jun  8 18:15:19 2021, MaxMem=    33554432 cpu:         0.3
 (Enter /opt/app/gaussian09/e01/g09/l9999.exe)
 1\1\GINC-NB-0142\FOpt\RB3LYP\6-31G(d,p)\C15H23N2(1+)\ROOT\08-Jun-2021\
 0\\#p opt b3lyp/6-31g(d,p) geom=connectivity scf=tight\\opt\\1,1\C,-1.
 7532783352,-0.0869378338,0.002543016\H,-1.6638623881,0.9991096484,0.05
 51061797\C,-0.5742186498,-0.820565759,-0.0291406722\H,-0.6334497891,-1
 .906167611,-0.0815201158\C,0.6888045548,-0.2213120661,0.0035238239\H,0
 .7255255722,0.8676731555,0.0560552575\C,-3.0486352026,-0.6245043672,-0
 .0274488343\H,-3.1661818566,-1.7021019312,-0.0799525733\C,-4.162295903
 4,0.2012314687,0.0085060095\H,-4.0106196229,1.2768312016,0.0594763115\
 N,-5.4429239511,-0.1816686445,-0.012652593\C,1.9040898878,-0.903122265
 4,-0.0256186577\H,1.8906090681,-1.990333739,-0.078020123\C,3.135905458
 8,-0.2519192475,0.0095083144\H,3.1261767047,0.8376448544,0.0619800618\
 C,4.3836895636,-0.8825707226,-0.0170752579\H,4.4160036087,-1.969311207
 8,-0.0693701302\C,5.5805759624,-0.1786683695,0.020550792\H,5.518100163
 4,0.9092754374,0.072822056\C,6.8622038,-0.7484939309,-0.0027613409\H,6
 .9529941499,-1.8287278268,-0.0541917337\N,9.2667221572,-0.3656449224,0
 .0226089215\C,7.9960061603,0.0490807058,0.0395639044\H,7.8710320124,1.
 1280203126,0.0923832449\C,-5.8038746698,-1.5973236104,-0.0802491473\H,
 -5.4157809998,-2.0527159022,-0.9974366085\H,-5.4032447789,-2.139957065
 4,0.7822702462\H,-6.8895208784,-1.6889882636,-0.0768636807\C,-6.532052
 159,0.7917100092,0.0242939797\H,-7.1645255464,0.6237273617,0.902158569
 \H,-6.1234665722,1.8016379529,0.0748762207\H,-7.150729852,0.7072409091
 ,-0.8752369288\C,10.379700993,0.5795225288,0.0775437261\H,9.9963308855
 ,1.5994325715,0.1250230239\H,10.9954666883,0.3935998035,0.9637158778\H
 ,11.0084019039,0.4811212549,-0.8134973394\C,9.5925185952,-1.7897336796
 ,-0.0465749798\H,9.1917439107,-2.3214854332,0.82281235\H,9.1801029528,
 -2.2368191736,-0.9570282932\H,10.6755790015,-1.9074510335,-0.059474246
 9\\Version=ES64L-G09RevE.01\State=1-A\HF=-694.7368161\RMSD=4.737e-09\R
 MSF=4.103e-06\Dipole=0.0057168,0.4195791,0.020175\Quadrupole=121.65125
 45,-52.7306174,-68.9206372,-2.1871806,0.5470052,0.7730381\PG=C01 [X(C1
 5H23N2)]\\@


 When I told the people of Northern Ireland that I was
 an atheist, a woman in the audience stood up and said,
 "Yes, but is it the God of the Catholics or the God
 of the Protestants in whom you don't believe?"
                               -- Quentin Crisp
 Job cpu time:       0 days  2 hours  1 minutes 37.1 seconds.
 File lengths (MBytes):  RWF=     86 Int=      0 D2E=      0 Chk=     12 Scr=      1
 Normal termination of Gaussian 09 at Tue Jun  8 18:15:19 2021.
