 Entering Gaussian System, Link 0=/opt/app/gaussian09/e01/g09/g09.exec
 Input=5_pp_td.gjf
 Output=5_pp_td.log
 Initial command:
 /opt/app/gaussian09/e01/g09/l1.exe "./Gau-63325.inp" -scrdir="./"
 Entering Link 1 = /opt/app/gaussian09/e01/g09/l1.exe PID=     63338.
  
 Copyright (c) 1988,1990,1992,1993,1995,1998,2003,2009,2015,
            Gaussian, Inc.  All Rights Reserved.
  
 This is part of the Gaussian(R) 09 program.  It is based on
 the Gaussian(R) 03 system (copyright 2003, Gaussian, Inc.),
 the Gaussian(R) 98 system (copyright 1998, Gaussian, Inc.),
 the Gaussian(R) 94 system (copyright 1995, Gaussian, Inc.),
 the Gaussian 92(TM) system (copyright 1992, Gaussian, Inc.),
 the Gaussian 90(TM) system (copyright 1990, Gaussian, Inc.),
 the Gaussian 88(TM) system (copyright 1988, Gaussian, Inc.),
 the Gaussian 86(TM) system (copyright 1986, Carnegie Mellon
 University), and the Gaussian 82(TM) system (copyright 1983,
 Carnegie Mellon University). Gaussian is a federally registered
 trademark of Gaussian, Inc.
  
 This software contains proprietary and confidential information,
 including trade secrets, belonging to Gaussian, Inc.
  
 This software is provided under written license and may be
 used, copied, transmitted, or stored only in accord with that
 written license.
  
 The following legend is applicable only to US Government
 contracts under FAR:
  
                    RESTRICTED RIGHTS LEGEND
  
 Use, reproduction and disclosure by the US Government is
 subject to restrictions as set forth in subparagraphs (a)
 and (c) of the Commercial Computer Software - Restricted
 Rights clause in FAR 52.227-19.
  
 Gaussian, Inc.
 340 Quinnipiac St., Bldg. 40, Wallingford CT 06492
  
  
 ---------------------------------------------------------------
 Warning -- This program may not be used in any manner that
 competes with the business of Gaussian, Inc. or will provide
 assistance to any competitor of Gaussian, Inc.  The licensee
 of this program is prohibited from giving any competitor of
 Gaussian, Inc. access to this program.  By using this program,
 the user acknowledges that Gaussian, Inc. is engaged in the
 business of creating and licensing software in the field of
 computational chemistry and represents and warrants to the
 licensee that it is not a competitor of Gaussian, Inc. and that
 it will not use this program in any manner prohibited above.
 ---------------------------------------------------------------
  

 Cite this work as:
 Gaussian 09, Revision E.01,
 M. J. Frisch, G. W. Trucks, H. B. Schlegel, G. E. Scuseria, 
 M. A. Robb, J. R. Cheeseman, G. Scalmani, V. Barone, B. Mennucci, 
 G. A. Petersson, H. Nakatsuji, M. Caricato, X. Li, H. P. Hratchian, 
 A. F. Izmaylov, J. Bloino, G. Zheng, J. L. Sonnenberg, M. Hada, 
 M. Ehara, K. Toyota, R. Fukuda, J. Hasegawa, M. Ishida, T. Nakajima, 
 Y. Honda, O. Kitao, H. Nakai, T. Vreven, J. A. Montgomery, Jr., 
 J. E. Peralta, F. Ogliaro, M. Bearpark, J. J. Heyd, E. Brothers, 
 K. N. Kudin, V. N. Staroverov, T. Keith, R. Kobayashi, J. Normand, 
 K. Raghavachari, A. Rendell, J. C. Burant, S. S. Iyengar, J. Tomasi, 
 M. Cossi, N. Rega, J. M. Millam, M. Klene, J. E. Knox, J. B. Cross, 
 V. Bakken, C. Adamo, J. Jaramillo, R. Gomperts, R. E. Stratmann, 
 O. Yazyev, A. J. Austin, R. Cammi, C. Pomelli, J. W. Ochterski, 
 R. L. Martin, K. Morokuma, V. G. Zakrzewski, G. A. Voth, 
 P. Salvador, J. J. Dannenberg, S. Dapprich, A. D. Daniels, 
 O. Farkas, J. B. Foresman, J. V. Ortiz, J. Cioslowski, 
 and D. J. Fox, Gaussian, Inc., Wallingford CT, 2013.
 
 ******************************************
 Gaussian 09:  ES64L-G09RevE.01 30-Nov-2015
                 8-Jun-2021 
 ******************************************
 %chk=5_pp_td.chk
 --------------------------------------------------
 #p td(NStates=10) b3lyp/6-31g(d,p) nosymm pop=full
 --------------------------------------------------
 1/38=1/1;
 2/12=2,15=1,17=6,18=5,40=1/2;
 3/5=1,6=6,7=101,11=9,16=1,25=1,30=1,74=-5/1,2,8,3;
 4//1;
 5/5=2,38=5/2;
 8/6=1,10=2,108=10/1;
 9/41=10,42=1,70=2/14;
 6/7=3/1;
 99/5=1,9=1/99;
 Leave Link    1 at Tue Jun  8 18:39:01 2021, MaxMem=           0 cpu:         0.1
 (Enter /opt/app/gaussian09/e01/g09/l101.exe)
 ---
 opt
 ---
 Symbolic Z-matrix:
 Charge =  1 Multiplicity = 1
 C                     3.66723  -0.28369   0.00056 
 H                     3.59128  -1.37203   0.00063 
 C                     2.47917   0.43596   0.00035 
 H                     2.52494   1.52348   0.00035 
 C                     1.22366  -0.17975   0.00014 
 H                     1.20044  -1.27038   0.00021 
 C                     4.95583   0.27069   0.00058 
 H                     5.06002   1.35094   0.00026 
 C                     6.07964  -0.54197   0.00043 
 H                     5.94131  -1.62057  -0.0008 
 N                     7.35543  -0.14268   0.00179 
 C                     0.00002   0.48758  -0.00013 
 H                     0.00003   1.57613  -0.00023 
 C                    -1.22364  -0.17976  -0.00027 
 H                    -1.20041  -1.27038  -0.00015 
 C                    -2.47914   0.43595  -0.00056 
 H                    -2.52492   1.52346  -0.00071 
 C                    -3.66722  -0.28371  -0.00062 
 H                    -3.59127  -1.37205  -0.00045 
 C                    -4.95581   0.27067  -0.00066 
 H                    -5.05999   1.35092  -0.00046 
 N                    -7.35541  -0.14269  -0.00144 
 C                    -6.07965  -0.54199  -0.00033 
 H                    -5.94132  -1.62059   0.00102 
 C                     7.69881   1.27895   0.00341 
 H                     7.30744   1.77305  -0.8921 
 H                     7.28916   1.77451   0.8897 
 H                     8.78321   1.38378   0.01468 
 C                     8.45656  -1.10315  -0.00454 
 H                     9.08458  -0.96973   0.88241 
 H                     8.06051  -2.11932  -0.00382 
 H                     9.07648  -0.9679   -0.89698 
 C                    -8.45661  -1.10311   0.00447 
 H                    -8.06063  -2.1193    0.00416 
 H                    -9.07697  -0.96762   0.89657 
 H                    -9.08416  -0.96979  -0.88283 
 C                    -7.69883   1.27894  -0.00321 
 H                    -7.30701   1.77322   0.89199 
 H                    -7.28966   1.77433  -0.88981 
 H                    -8.78324   1.38373  -0.01392 
 
 NAtoms=     40 NQM=       40 NQMF=       0 NMMI=      0 NMMIF=      0
                NMic=       0 NMicF=      0.
                    Isotopes and Nuclear Properties:
 (Nuclear quadrupole moments (NQMom) in fm**2, nuclear magnetic moments (NMagM)
  in nuclear magnetons)

  Atom         1           2           3           4           5           6           7           8           9          10
 IAtWgt=          12           1          12           1          12           1          12           1          12           1
 AtmWgt=  12.0000000   1.0078250  12.0000000   1.0078250  12.0000000   1.0078250  12.0000000   1.0078250  12.0000000   1.0078250
 NucSpn=           0           1           0           1           0           1           0           1           0           1
 AtZEff=   0.0000000   0.0000000   0.0000000   0.0000000   0.0000000   0.0000000   0.0000000   0.0000000   0.0000000   0.0000000
 NQMom=    0.0000000   0.0000000   0.0000000   0.0000000   0.0000000   0.0000000   0.0000000   0.0000000   0.0000000   0.0000000
 NMagM=    0.0000000   2.7928460   0.0000000   2.7928460   0.0000000   2.7928460   0.0000000   2.7928460   0.0000000   2.7928460
 AtZNuc=   6.0000000   1.0000000   6.0000000   1.0000000   6.0000000   1.0000000   6.0000000   1.0000000   6.0000000   1.0000000

  Atom        11          12          13          14          15          16          17          18          19          20
 IAtWgt=          14          12           1          12           1          12           1          12           1          12
 AtmWgt=  14.0030740  12.0000000   1.0078250  12.0000000   1.0078250  12.0000000   1.0078250  12.0000000   1.0078250  12.0000000
 NucSpn=           2           0           1           0           1           0           1           0           1           0
 AtZEff=   0.0000000   0.0000000   0.0000000   0.0000000   0.0000000   0.0000000   0.0000000   0.0000000   0.0000000   0.0000000
 NQMom=    2.0440000   0.0000000   0.0000000   0.0000000   0.0000000   0.0000000   0.0000000   0.0000000   0.0000000   0.0000000
 NMagM=    0.4037610   0.0000000   2.7928460   0.0000000   2.7928460   0.0000000   2.7928460   0.0000000   2.7928460   0.0000000
 AtZNuc=   7.0000000   6.0000000   1.0000000   6.0000000   1.0000000   6.0000000   1.0000000   6.0000000   1.0000000   6.0000000

  Atom        21          22          23          24          25          26          27          28          29          30
 IAtWgt=           1          14          12           1          12           1           1           1          12           1
 AtmWgt=   1.0078250  14.0030740  12.0000000   1.0078250  12.0000000   1.0078250   1.0078250   1.0078250  12.0000000   1.0078250
 NucSpn=           1           2           0           1           0           1           1           1           0           1
 AtZEff=   0.0000000   0.0000000   0.0000000   0.0000000   0.0000000   0.0000000   0.0000000   0.0000000   0.0000000   0.0000000
 NQMom=    0.0000000   2.0440000   0.0000000   0.0000000   0.0000000   0.0000000   0.0000000   0.0000000   0.0000000   0.0000000
 NMagM=    2.7928460   0.4037610   0.0000000   2.7928460   0.0000000   2.7928460   2.7928460   2.7928460   0.0000000   2.7928460
 AtZNuc=   1.0000000   7.0000000   6.0000000   1.0000000   6.0000000   1.0000000   1.0000000   1.0000000   6.0000000   1.0000000

  Atom        31          32          33          34          35          36          37          38          39          40
 IAtWgt=           1           1          12           1           1           1          12           1           1           1
 AtmWgt=   1.0078250   1.0078250  12.0000000   1.0078250   1.0078250   1.0078250  12.0000000   1.0078250   1.0078250   1.0078250
 NucSpn=           1           1           0           1           1           1           0           1           1           1
 AtZEff=   0.0000000   0.0000000   0.0000000   0.0000000   0.0000000   0.0000000   0.0000000   0.0000000   0.0000000   0.0000000
 NQMom=    0.0000000   0.0000000   0.0000000   0.0000000   0.0000000   0.0000000   0.0000000   0.0000000   0.0000000   0.0000000
 NMagM=    2.7928460   2.7928460   0.0000000   2.7928460   2.7928460   2.7928460   0.0000000   2.7928460   2.7928460   2.7928460
 AtZNuc=   1.0000000   1.0000000   6.0000000   1.0000000   1.0000000   1.0000000   6.0000000   1.0000000   1.0000000   1.0000000
 Leave Link  101 at Tue Jun  8 18:39:02 2021, MaxMem=    33554432 cpu:         0.1
 (Enter /opt/app/gaussian09/e01/g09/l202.exe)
                          Input orientation:                          
 ---------------------------------------------------------------------
 Center     Atomic      Atomic             Coordinates (Angstroms)
 Number     Number       Type             X           Y           Z
 ---------------------------------------------------------------------
      1          6           0        3.667231   -0.283688    0.000563
      2          1           0        3.591279   -1.372031    0.000630
      3          6           0        2.479167    0.435965    0.000352
      4          1           0        2.524941    1.523479    0.000350
      5          6           0        1.223663   -0.179753    0.000145
      6          1           0        1.200439   -1.270376    0.000209
      7          6           0        4.955831    0.270690    0.000582
      8          1           0        5.060017    1.350938    0.000259
      9          6           0        6.079643   -0.541972    0.000426
     10          1           0        5.941309   -1.620573   -0.000796
     11          7           0        7.355429   -0.142676    0.001794
     12          6           0        0.000018    0.487575   -0.000133
     13          1           0        0.000026    1.576132   -0.000227
     14          6           0       -1.223637   -0.179760   -0.000274
     15          1           0       -1.200408   -1.270383   -0.000149
     16          6           0       -2.479144    0.435948   -0.000557
     17          1           0       -2.524922    1.523462   -0.000714
     18          6           0       -3.667220   -0.283710   -0.000620
     19          1           0       -3.591268   -1.372052   -0.000448
     20          6           0       -4.955815    0.270671   -0.000664
     21          1           0       -5.059985    1.350922   -0.000459
     22          7           0       -7.355411   -0.142687   -0.001436
     23          6           0       -6.079652   -0.541989   -0.000329
     24          1           0       -5.941320   -1.620591    0.001024
     25          6           0        7.698806    1.278951    0.003410
     26          1           0        7.307444    1.773052   -0.892096
     27          1           0        7.289160    1.774511    0.889698
     28          1           0        8.783208    1.383777    0.014683
     29          6           0        8.456556   -1.103151   -0.004539
     30          1           0        9.084578   -0.969730    0.882408
     31          1           0        8.060513   -2.119322   -0.003821
     32          1           0        9.076479   -0.967903   -0.896983
     33          6           0       -8.456611   -1.103106    0.004474
     34          1           0       -8.060630   -2.119296    0.004159
     35          1           0       -9.076972   -0.967617    0.896568
     36          1           0       -9.084161   -0.969791   -0.882831
     37          6           0       -7.698826    1.278939   -0.003208
     38          1           0       -7.307014    1.773220    0.891993
     39          1           0       -7.289658    1.774328   -0.889813
     40          1           0       -8.783237    1.383726   -0.013921
 ---------------------------------------------------------------------
                    Distance matrix (angstroms):
                    1          2          3          4          5
     1  C    0.000000
     2  H    1.090989   0.000000
     3  C    1.389027   2.122649   0.000000
     4  H    2.137915   3.085621   1.088478   0.000000
     5  C    2.445777   2.650874   1.398356   2.143438   0.000000
     6  H    2.656806   2.393001   2.132310   3.091914   1.090870
     7  C    1.402793   2.135541   2.482173   2.734722   3.759253
     8  H    2.147524   3.093825   2.738241   2.540940   4.130452
     9  C    2.426199   2.623157   3.730923   4.111203   4.869471
    10  H    2.637934   2.363137   4.026882   4.642913   4.932763
    11  N    3.690893   3.959815   4.910474   5.109764   6.131878
    12  C    3.747438   4.044167   2.479686   2.729164   1.393784
    13  H    4.111852   4.646371   2.728759   2.525464   2.140192
    14  C    4.891972   4.960335   3.753648   4.117386   2.447300
    15  H    4.966636   4.792765   4.055970   4.656597   2.658118
    16  C    6.188360   6.333942   4.958311   5.120898   3.753647
    17  H    6.450469   6.766963   5.120894   5.049863   4.117381
    18  C    7.334451   7.339636   6.188377   6.450488   4.891987
    19  H    7.339641   7.182547   6.333964   6.766987   4.960356
    20  C    8.640847   8.703521   7.436819   7.584935   6.195872
    21  H    8.878978   9.069666   7.594469   7.586889   6.467395
    22  N   11.023543  11.015503   9.851587  10.019854   8.579154
    23  C    9.750304   9.706486   8.614509   8.849021   7.312292
    24  H    9.701111   9.535839   8.667989   9.031210   7.308419
    25  C    4.323824   4.888711   5.287274   5.179641   6.637418
    26  H    4.275298   4.949584   5.088862   4.871455   6.451506
    27  H    4.259709   4.936141   5.071359   4.853013   6.434339
    28  H    5.380879   5.877993   6.374910   6.259842   7.719557
    29  C    4.858928   4.872704   6.172364   6.487161   7.291600
    30  H    5.531361   5.578146   6.810687   7.072690   7.949619
    31  H    4.761355   4.531282   6.138479   6.626656   7.106649
    32  H    5.525731   5.572831   6.804453   7.066459   7.943094
    33  C   12.151502  12.050892  11.043550  11.291300   9.724212
    34  H   11.870644  11.675847  10.845123  11.194827   9.484721
    35  H   12.793955  12.706331  11.675513  11.900133  10.369541
    36  H   12.800356  12.712556  11.681897  11.906623  10.375695
    37  C   11.472971  11.597160  10.212843  10.226692   9.040940
    38  H   11.200874  11.378046   9.917289   9.875462   8.796701
    39  H   11.183989  11.361657   9.900179   9.858077   8.779925
    40  H   12.561633  12.677660  11.302221  11.309051  10.128312
                    6          7          8          9         10
     6  H    0.000000
     7  C    4.059293   0.000000
     8  H    4.665580   1.085261   0.000000
     9  C    4.933276   1.386857   2.150057   0.000000
    10  H    4.753788   2.132615   3.099445   1.087437   0.000000
    11  N    6.257445   2.434942   2.738577   1.336813   2.045463
    12  C    2.128709   4.960557   5.133126   6.166182   6.304223
    13  H    3.089272   5.124860   5.064999   6.438021   6.746687
    14  C    2.658117   6.195864   6.467406   7.312257   7.308379
    15  H    2.400846   6.346195   6.787064   7.316401   7.150298
    16  C    4.055967   7.436812   7.594482   8.614474   8.667948
    17  H    4.656591   7.584926   7.586900   8.848986   9.031170
    18  C    4.966650   8.640855   8.879005   9.750284   9.701085
    19  H    4.792785   8.703534   9.069697   9.706469   9.535816
    20  C    6.346202   9.911646  10.073920  11.065339  11.060024
    21  H    6.787054  10.073901  10.120002  11.299308  11.395537
    22  N    8.629846  12.318180  12.504950  13.440986  13.378599
    23  C    7.316438  11.065366  11.299353  12.159295  12.069252
    24  H    7.150341  11.060057  11.395587  12.069257  11.882630
    25  C    6.980535   2.922415   2.639773   2.436690   3.390583
    26  H    6.881437   2.929854   2.454670   2.768289   3.765293
    27  H    6.865498   2.914864   2.437129   2.760404   3.759824
    28  H    8.033874   3.985972   3.723364   3.319334   4.135547
    29  C    7.258045   3.760656   4.190352   2.442265   2.567918
    30  H    7.939038   4.400319   4.728719   3.160776   3.329232
    31  H    6.912405   3.918064   4.587559   2.532172   2.177104
    32  H    7.932746   4.395392   4.723774   3.157180   3.325420
    33  C    9.658499  13.482616  13.737598  14.547081  14.407218
    34  H    9.299896  13.234059  13.571806  14.227975  14.010819
    35  H   10.320867  14.115799  14.353868  15.189050  15.059230
    36  H   10.326815  14.122344  14.360481  15.195530  15.065400
    37  C    9.257209  12.694760  12.759046  13.898271  13.944908
    38  H    9.079401  12.386670  12.406328  13.614610  13.705218
    39  H    9.063338  12.369549  12.388945  13.597646  13.688470
    40  H   10.330452  13.784087  13.843300  14.987119  15.027916
                   11         12         13         14         15
    11  N    0.000000
    12  C    7.382363   0.000000
    13  H    7.553559   1.088557   0.000000
    14  C    8.579146   1.393797   2.140213   0.000000
    15  H    8.629836   2.128718   3.089287   1.090870   0.000000
    16  C    9.851580   2.479700   2.728792   1.398354   2.132306
    17  H   10.019848   2.729173   2.525497   2.143434   3.091910
    18  C   11.023551   3.747468   4.111898   2.445793   2.656819
    19  H   11.015513   4.044199   4.646416   2.650893   2.393021
    20  C   12.318181   4.960578   5.124899   3.759260   4.059301
    21  H   12.504933   5.133128   5.065020   4.130442   4.665573
    22  N   14.710840   7.382382   7.553595   6.131886   6.257456
    23  C   13.441013   6.166230   6.438083   4.869506   4.933313
    24  H   13.378631   6.304274   6.746750   4.932801   4.753830
    25  C    1.462509   7.739356   7.704515   9.040899   9.257166
    26  H    2.114558   7.473053   7.364276   8.797054   9.079736
    27  H    2.113852   7.455172   7.345938   8.779462   9.062890
    28  H    2.090162   8.828806   8.785300  10.128268  10.330410
    29  C    1.461175   8.604850   8.870821   9.724135   9.658412
    30  H    2.109373   9.242935   9.475734  10.376053  10.327160
    31  H    2.098644   8.471570   8.867234   9.484585   9.299751
    32  H    2.109695   9.236065   9.468806  10.369072  10.320378
    33  C   15.841182   8.604933   8.870911   7.291674   7.258133
    34  H   15.542262   8.471709   8.867378   7.106778   6.912548
    35  H   16.477407   9.236526   9.469255   7.943546   7.933224
    36  H   16.484138   9.242586   9.475398   7.949270   7.938706
    37  C   15.121230   7.739410   7.704586   6.637460   6.980579
    38  H   14.813857   7.472717   7.363949   6.451182   6.881140
    39  H   14.796906   7.455645   7.346437   6.434777   6.865911
    40  H   16.210697   8.828865   8.785381   7.719600   8.033915
                   16         17         18         19         20
    16  C    0.000000
    17  H    1.088478   0.000000
    18  C    1.389040   2.137924   0.000000
    19  H    2.122659   3.085628   1.090989   0.000000
    20  C    2.482180   2.734726   1.402788   2.135539   0.000000
    21  H    2.738233   2.540928   2.147514   3.093819   1.085262
    22  N    4.910478   5.109763   3.690886   3.959812   2.434939
    23  C    3.730954   4.111228   2.426218   2.623178   1.386876
    24  H    4.026912   4.642936   2.637951   2.363159   2.132626
    25  C   10.212803  10.226652  11.472946  11.597138  12.694727
    26  H    9.917660   9.875843  11.201261  11.378428  12.387062
    27  H    9.899701   9.857589  11.183524  11.361203  12.369062
    28  H   11.302176  11.309003  12.561604  12.677636  13.784048
    29  C   11.043476  11.291234  12.151437  12.050824  13.482547
    30  H   11.682261  11.906989  12.800731  12.712921  14.122714
    31  H   10.844989  11.194700  11.870518  11.675719  13.233928
    32  H   11.675050  11.899693  12.793492  12.705861  14.115336
    33  C    6.172425   6.487205   4.858982   4.872774   3.760700
    34  H    6.138589   6.626747   4.761455   4.531401   3.918143
    35  H    6.804863   7.066821   5.526129   5.573254   4.395716
    36  H    6.810342   7.072345   5.531027   5.577840   4.400024
    37  C    5.287317   5.179679   4.323855   4.888742   2.922451
    38  H    5.088544   4.871110   4.275023   4.949340   2.929613
    39  H    5.071793   4.853467   4.260075   4.936474   2.915201
    40  H    6.374955   6.259889   5.380906   5.878014   3.986004
                   21         22         23         24         25
    21  H    0.000000
    22  N    2.738585   0.000000
    23  C    2.150077   1.336789   0.000000
    24  H    3.099458   2.045448   1.087437   0.000000
    25  C   12.758995  15.121195  13.898264  13.944906   0.000000
    26  H   12.406712  14.814271  13.615028  13.705627   1.095094
    27  H   12.388430  14.796393  13.597185  13.688027   1.094941
    28  H   13.843240  16.210656  14.987107  15.027912   1.089514
    29  C   13.737516  15.841110  14.547036  14.407172   2.499731
    30  H   14.360833  16.484490  15.195922  15.065791   2.783804
    31  H   13.571664  15.542130  14.227869  14.010713   3.417476
    32  H   14.353408  16.476953  15.188604  15.058775   2.785147
    33  C    4.190387   1.461192   2.442297   2.567974  16.330086
    34  H    4.587625   2.098654   2.532231   2.177198  16.121660
    35  H    4.724030   2.109667   3.157454   3.325761  16.949087
    36  H    4.728455   2.109392   3.160522   3.328992  16.956128
    37  C    2.639824   1.462518   2.436701   3.390592  15.397634
    38  H    2.454373   2.114535   2.768186   3.765222  15.040231
    39  H    2.437553   2.113879   2.760547   3.759931  15.023226
    40  H    3.723421   2.090163   3.319328   4.135533  16.482386
                   26         27         28         29         30
    26  H    0.000000
    27  H    1.781888   0.000000
    28  H    1.775292   1.774965   0.000000
    29  C    3.221918   3.231626   2.508362   0.000000
    30  H    3.718860   3.279396   2.526414   1.094937   0.000000
    31  H    4.062846   4.068820   3.576917   1.090622   1.776422
    32  H    3.262261   3.729286   2.539202   1.095013   1.779410
    33  C   16.049347  16.031021  17.418268  16.913169  17.563652
    34  H   15.878644  15.860705  17.204258  16.548415  17.206132
    35  H   16.708072  16.594264  18.035876  17.557191  18.161556
    36  H   16.619506  16.696069  18.044049  17.563198  18.254291
    37  C   15.040691  15.022736  16.482377  16.330055  16.956517
    38  H   14.722954  14.596175  16.118827  16.048907  16.619512
    39  H   14.597102  14.687022  16.103033  16.031433  16.696893
    40  H   16.119329  16.102522  17.566468  17.418241  18.044417
                   31         32         33         34         35
    31  H    0.000000
    32  H    1.776426   0.000000
    33  C   16.548358  17.556770   0.000000
    34  H   16.121145  17.199368   1.090616   0.000000
    35  H   17.199725  18.241837   1.095005   1.776432   0.000000
    36  H   17.205637  18.160646   1.094944   1.776437   1.779414
    37  C   16.121567  16.948687   2.499687   3.417449   2.784941
    38  H   15.878138  16.707275   3.222191   4.062988   3.262661
    39  H   15.861061  16.594286   3.231278   4.068648   3.728795
    40  H   17.204167  18.035504   2.508258   3.576821   2.538520
                   36         37         38         39         40
    36  H    0.000000
    37  C    2.783824   0.000000
    38  H    3.719188   1.095087   0.000000
    39  H    3.278792   1.094942   1.781891   0.000000
    40  H    2.526777   1.089515   1.775281   1.774975   0.000000
 Symmetry turned off by external request.
 Stoichiometry    C15H23N2(1+)
 Framework group  C1[X(C15H23N2)]
 Deg. of freedom   114
 Full point group                 C1      NOp   1
 Rotational constants (GHZ):      3.4394937      0.0661379      0.0649968
 Leave Link  202 at Tue Jun  8 18:39:03 2021, MaxMem=    33554432 cpu:         0.0
 (Enter /opt/app/gaussian09/e01/g09/l301.exe)
 Standard basis: 6-31G(d,p) (6D, 7F)
 Ernie: Thresh=  0.10000D-02 Tol=  0.10000D-05 Strict=F.
   370 basis functions,   637 primitive gaussians,   370 cartesian basis functions
    63 alpha electrons       63 beta electrons
       nuclear repulsion energy       980.5912465808 Hartrees.
 IExCor=  402 DFT=T Ex+Corr=B3LYP ExCW=0 ScaHFX=  0.200000
 ScaDFX=  0.800000  0.720000  1.000000  0.810000 ScalE2=  1.000000  1.000000
 IRadAn=      0 IRanWt=     -1 IRanGd=            0 ICorTp=0 IEmpDi=  4
 NAtoms=   40 NActive=   40 NUniq=   40 SFac= 1.00D+00 NAtFMM=   60 NAOKFM=F Big=F
 Integral buffers will be    131072 words long.
 Regular integral format.
 Two-electron integral symmetry is turned off.
 Leave Link  301 at Tue Jun  8 18:39:03 2021, MaxMem=    33554432 cpu:         0.1
 (Enter /opt/app/gaussian09/e01/g09/l302.exe)
 NPDir=0 NMtPBC=     1 NCelOv=     1 NCel=       1 NClECP=     1 NCelD=      1
         NCelK=      1 NCelE2=     1 NClLst=     1 CellRange=     0.0.
 One-electron integrals computed using PRISM.
 NBasis=   370 RedAO= T EigKep=  1.15D-03  NBF=   370
 NBsUse=   370 1.00D-06 EigRej= -1.00D+00 NBFU=   370
 Precomputing XC quadrature grid using
 IXCGrd= 4 IRadAn=           0 IRanWt=          -1 IRanGd=           0 AccXCQ= 0.00D+00.
 Generated NRdTot=       0 NPtTot=           0 NUsed=           0 NTot=          32
 NSgBfM=   323   325   325   325   325 MxSgAt=    40 MxSgA2=    40.
 Leave Link  302 at Tue Jun  8 18:39:11 2021, MaxMem=    33554432 cpu:         1.1
 (Enter /opt/app/gaussian09/e01/g09/l308.exe)
 Leave Link  308 at Tue Jun  8 18:39:13 2021, MaxMem=    33554432 cpu:         0.1
 (Enter /opt/app/gaussian09/e01/g09/l303.exe)
 DipDrv:  MaxL=1.
 Leave Link  303 at Tue Jun  8 18:39:14 2021, MaxMem=    33554432 cpu:         0.1
 (Enter /opt/app/gaussian09/e01/g09/l401.exe)
 ExpMin= 1.61D-01 ExpMax= 4.17D+03 ExpMxC= 6.27D+02 IAcc=1 IRadAn=         1 AccDes= 0.00D+00
 Harris functional with IExCor=  402 and IRadAn=       1 diagonalized for initial guess.
 HarFok:  IExCor=  402 AccDes= 0.00D+00 IRadAn=         1 IDoV= 1 UseB2=F ITyADJ=14
 ICtDFT=  3500011 ScaDFX=  1.000000  1.000000  1.000000  1.000000
 FoFCou: FMM=F IPFlag=           0 FMFlag=      100000 FMFlg1=           0
         NFxFlg=           0 DoJE=T BraDBF=F KetDBF=T FulRan=T
         wScrn=  0.000000 ICntrl=     500 IOpCl=  0 I1Cent=   200000004 NGrid=           0
         NMat0=    1 NMatS0=      1 NMatT0=    0 NMatD0=    1 NMtDS0=    0 NMtDT0=    0
 Symmetry not used in FoFCou.
 Harris En= -694.771843292089    
 JPrj=0 DoOrth=F DoCkMO=F.
 Leave Link  401 at Tue Jun  8 18:39:18 2021, MaxMem=    33554432 cpu:         4.1
 (Enter /opt/app/gaussian09/e01/g09/l502.exe)
 Closed shell SCF:
 Using DIIS extrapolation, IDIIS=  1040.
 Two-electron integral symmetry not used.
 IVT=      433770 IEndB=      433770 NGot=    33554432 MDV=    33274573
 LenX=    33274573 LenY=    33137232
 Requested convergence on RMS density matrix=1.00D-08 within 128 cycles.
 Requested convergence on MAX density matrix=1.00D-06.
 Requested convergence on             energy=1.00D-06.
 No special actions if energy rises.
 Fock matrices will be formed incrementally for  20 cycles.
 Integral accuracy reduced to 1.0D-05 until final iterations.

 Cycle   1  Pass 0  IDiag  1:
 FoFJK:  IHMeth= 1 ICntrl=       0 DoSepK=F KAlg= 0 I1Cent=   0 FoldK=F
 IRaf= 510000000 NMat=   1 IRICut=       1 DoRegI=T DoRafI=F ISym2E= 0.
 FoFCou: FMM=F IPFlag=           0 FMFlag=      100000 FMFlg1=           0
         NFxFlg=           0 DoJE=F BraDBF=F KetDBF=F FulRan=T
         wScrn=  0.000000 ICntrl=       0 IOpCl=  0 I1Cent=           0 NGrid=           0
         NMat0=    1 NMatS0=      1 NMatT0=    0 NMatD0=    1 NMtDS0=    0 NMtDT0=    0
 Symmetry not used in FoFCou.
 E= -694.302338950443    
 DIIS: error= 3.53D-02 at cycle   1 NSaved=   1.
 NSaved= 1 IEnMin= 1 EnMin= -694.302338950443     IErMin= 1 ErrMin= 3.53D-02
 ErrMax= 3.53D-02  0.00D+00 EMaxC= 1.00D-01 BMatC= 3.83D-01 BMatP= 3.83D-01
 IDIUse=3 WtCom= 6.47D-01 WtEn= 3.53D-01
 Coeff-Com:  0.100D+01
 Coeff-En:   0.100D+01
 Coeff:      0.100D+01
 Gap=     0.082 Goal=   None    Shift=    0.000
 GapD=    0.082 DampG=0.500 DampE=0.500 DampFc=0.2500 IDamp=-1.
 Damping current iteration by 2.50D-01
 RMSDP=4.21D-03 MaxDP=1.30D-01              OVMax= 4.48D-01

 Cycle   2  Pass 0  IDiag  1:
 RMSU=  1.04D-03    CP:  9.87D-01
 E= -694.453662898124     Delta-E=       -0.151323947681 Rises=F Damp=T
 DIIS: error= 1.85D-02 at cycle   2 NSaved=   2.
 NSaved= 2 IEnMin= 2 EnMin= -694.453662898124     IErMin= 2 ErrMin= 1.85D-02
 ErrMax= 1.85D-02  0.00D+00 EMaxC= 1.00D-01 BMatC= 1.04D-01 BMatP= 3.83D-01
 IDIUse=3 WtCom= 8.15D-01 WtEn= 1.85D-01
 Coeff-Com: -0.722D+00 0.172D+01
 Coeff-En:   0.000D+00 0.100D+01
 Coeff:     -0.588D+00 0.159D+01
 Gap=     0.082 Goal=   None    Shift=    0.000
 RMSDP=1.51D-03 MaxDP=5.52D-02 DE=-1.51D-01 OVMax= 4.88D-01

 Cycle   3  Pass 0  IDiag  1:
 RMSU=  1.44D-03    CP:  9.65D-01  1.30D+00
 E= -694.640638643604     Delta-E=       -0.186975745481 Rises=F Damp=F
 DIIS: error= 2.23D-02 at cycle   3 NSaved=   3.
 NSaved= 3 IEnMin= 3 EnMin= -694.640638643604     IErMin= 2 ErrMin= 1.85D-02
 ErrMax= 2.23D-02  0.00D+00 EMaxC= 1.00D-01 BMatC= 7.70D-02 BMatP= 1.04D-01
 IDIUse=3 WtCom= 7.77D-01 WtEn= 2.23D-01
 Coeff-Com: -0.497D+00 0.106D+01 0.432D+00
 Coeff-En:   0.000D+00 0.000D+00 0.100D+01
 Coeff:     -0.386D+00 0.828D+00 0.559D+00
 Gap=     0.083 Goal=   None    Shift=    0.000
 RMSDP=1.47D-03 MaxDP=7.35D-02 DE=-1.87D-01 OVMax= 2.62D-01

 Cycle   4  Pass 0  IDiag  1:
 RMSU=  7.52D-04    CP:  9.71D-01  1.87D+00  2.23D-01
 E= -694.691434246672     Delta-E=       -0.050795603067 Rises=F Damp=F
 DIIS: error= 1.49D-02 at cycle   4 NSaved=   4.
 NSaved= 4 IEnMin= 4 EnMin= -694.691434246672     IErMin= 4 ErrMin= 1.49D-02
 ErrMax= 1.49D-02  0.00D+00 EMaxC= 1.00D-01 BMatC= 3.52D-02 BMatP= 7.70D-02
 IDIUse=3 WtCom= 8.51D-01 WtEn= 1.49D-01
 Coeff-Com: -0.330D-01 0.124D+00 0.386D+00 0.523D+00
 Coeff-En:   0.000D+00 0.000D+00 0.364D+00 0.636D+00
 Coeff:     -0.281D-01 0.106D+00 0.383D+00 0.540D+00
 Gap=     0.079 Goal=   None    Shift=    0.000
 RMSDP=6.85D-04 MaxDP=3.08D-02 DE=-5.08D-02 OVMax= 1.33D-01

 Cycle   5  Pass 0  IDiag  1:
 RMSU=  1.89D-04    CP:  9.70D-01  1.54D+00  5.52D-01  5.87D-01
 E= -694.735219835311     Delta-E=       -0.043785588639 Rises=F Damp=F
 DIIS: error= 2.63D-03 at cycle   5 NSaved=   5.
 NSaved= 5 IEnMin= 5 EnMin= -694.735219835311     IErMin= 5 ErrMin= 2.63D-03
 ErrMax= 2.63D-03  0.00D+00 EMaxC= 1.00D-01 BMatC= 1.24D-03 BMatP= 3.52D-02
 IDIUse=3 WtCom= 9.74D-01 WtEn= 2.63D-02
 Coeff-Com:  0.190D-01-0.183D-01 0.170D+00 0.301D+00 0.528D+00
 Coeff-En:   0.000D+00 0.000D+00 0.000D+00 0.000D+00 0.100D+01
 Coeff:      0.185D-01-0.178D-01 0.166D+00 0.293D+00 0.541D+00
 Gap=     0.079 Goal=   None    Shift=    0.000
 RMSDP=1.55D-04 MaxDP=6.68D-03 DE=-4.38D-02 OVMax= 2.91D-02

 Cycle   6  Pass 0  IDiag  1:
 RMSU=  8.27D-05    CP:  9.69D-01  1.58D+00  5.28D-01  6.60D-01  4.37D-01
 E= -694.736489032192     Delta-E=       -0.001269196881 Rises=F Damp=F
 DIIS: error= 1.22D-03 at cycle   6 NSaved=   6.
 NSaved= 6 IEnMin= 6 EnMin= -694.736489032192     IErMin= 6 ErrMin= 1.22D-03
 ErrMax= 1.22D-03  0.00D+00 EMaxC= 1.00D-01 BMatC= 2.39D-04 BMatP= 1.24D-03
 IDIUse=3 WtCom= 9.88D-01 WtEn= 1.22D-02
 Coeff-Com:  0.236D-02-0.550D-02 0.213D-01 0.490D-01 0.327D+00 0.606D+00
 Coeff-En:   0.000D+00 0.000D+00 0.000D+00 0.000D+00 0.189D+00 0.811D+00
 Coeff:      0.234D-02-0.544D-02 0.211D-01 0.484D-01 0.325D+00 0.608D+00
 Gap=     0.079 Goal=   None    Shift=    0.000
 RMSDP=5.53D-05 MaxDP=2.41D-03 DE=-1.27D-03 OVMax= 6.99D-03

 Cycle   7  Pass 0  IDiag  1:
 RMSU=  2.55D-05    CP:  9.69D-01  1.58D+00  5.35D-01  6.44D-01  6.14D-01
                    CP:  6.16D-01
 E= -694.736746712611     Delta-E=       -0.000257680419 Rises=F Damp=F
 DIIS: error= 2.91D-04 at cycle   7 NSaved=   7.
 NSaved= 7 IEnMin= 7 EnMin= -694.736746712611     IErMin= 7 ErrMin= 2.91D-04
 ErrMax= 2.91D-04  0.00D+00 EMaxC= 1.00D-01 BMatC= 3.24D-05 BMatP= 2.39D-04
 IDIUse=3 WtCom= 9.97D-01 WtEn= 2.91D-03
 Coeff-Com: -0.781D-03-0.110D-02-0.410D-02 0.112D-03 0.171D+00 0.402D+00
 Coeff-Com:  0.433D+00
 Coeff-En:   0.000D+00 0.000D+00 0.000D+00 0.000D+00 0.000D+00 0.269D-01
 Coeff-En:   0.973D+00
 Coeff:     -0.779D-03-0.110D-02-0.409D-02 0.111D-03 0.170D+00 0.401D+00
 Coeff:      0.435D+00
 Gap=     0.079 Goal=   None    Shift=    0.000
 RMSDP=1.46D-05 MaxDP=6.41D-04 DE=-2.58D-04 OVMax= 1.71D-03

 Cycle   8  Pass 0  IDiag  1:
 RMSU=  5.67D-06    CP:  9.69D-01  1.57D+00  5.35D-01  6.46D-01  6.14D-01
                    CP:  7.05D-01  5.66D-01
 E= -694.736778496211     Delta-E=       -0.000031783600 Rises=F Damp=F
 DIIS: error= 3.47D-05 at cycle   8 NSaved=   8.
 NSaved= 8 IEnMin= 8 EnMin= -694.736778496211     IErMin= 8 ErrMin= 3.47D-05
 ErrMax= 3.47D-05  0.00D+00 EMaxC= 1.00D-01 BMatC= 3.84D-07 BMatP= 3.24D-05
 IDIUse=1 WtCom= 1.00D+00 WtEn= 0.00D+00
 Coeff-Com: -0.143D-02 0.170D-02-0.282D-02-0.341D-02 0.468D-01 0.113D+00
 Coeff-Com:  0.127D+00 0.719D+00
 Coeff:     -0.143D-02 0.170D-02-0.282D-02-0.341D-02 0.468D-01 0.113D+00
 Coeff:      0.127D+00 0.719D+00
 Gap=     0.079 Goal=   None    Shift=    0.000
 RMSDP=2.47D-06 MaxDP=1.22D-04 DE=-3.18D-05 OVMax= 3.96D-04

 Initial convergence to 1.0D-05 achieved.  Increase integral accuracy.
 Cycle   9  Pass 1  IDiag  1:
 E= -694.736815725014     Delta-E=       -0.000037228803 Rises=F Damp=F
 DIIS: error= 2.75D-05 at cycle   1 NSaved=   1.
 NSaved= 1 IEnMin= 1 EnMin= -694.736815725014     IErMin= 1 ErrMin= 2.75D-05
 ErrMax= 2.75D-05  0.00D+00 EMaxC= 1.00D-01 BMatC= 3.41D-07 BMatP= 3.41D-07
 IDIUse=1 WtCom= 1.00D+00 WtEn= 0.00D+00
 Coeff-Com:  0.100D+01
 Coeff:      0.100D+01
 Gap=     0.079 Goal=   None    Shift=    0.000
 RMSDP=2.47D-06 MaxDP=1.22D-04 DE=-3.72D-05 OVMax= 3.69D-04

 Cycle  10  Pass 1  IDiag  1:
 RMSU=  8.73D-06    CP:  1.00D+00
 E= -694.736815603903     Delta-E=        0.000000121110 Rises=F Damp=F
 DIIS: error= 3.56D-05 at cycle   2 NSaved=   2.
 NSaved= 2 IEnMin= 1 EnMin= -694.736815725014     IErMin= 1 ErrMin= 2.75D-05
 ErrMax= 3.56D-05  0.00D+00 EMaxC= 1.00D-01 BMatC= 4.46D-07 BMatP= 3.41D-07
 IDIUse=1 WtCom= 1.00D+00 WtEn= 0.00D+00
 Coeff-Com:  0.540D+00 0.460D+00
 Coeff:      0.540D+00 0.460D+00
 Gap=     0.079 Goal=   None    Shift=    0.000
 RMSDP=2.32D-06 MaxDP=1.27D-04 DE= 1.21D-07 OVMax= 4.10D-04

 Cycle  11  Pass 1  IDiag  1:
 RMSU=  2.22D-06    CP:  1.00D+00  9.21D-01
 E= -694.736816024791     Delta-E=       -0.000000420887 Rises=F Damp=F
 DIIS: error= 1.66D-05 at cycle   3 NSaved=   3.
 NSaved= 3 IEnMin= 3 EnMin= -694.736816024791     IErMin= 3 ErrMin= 1.66D-05
 ErrMax= 1.66D-05  0.00D+00 EMaxC= 1.00D-01 BMatC= 4.01D-08 BMatP= 3.41D-07
 IDIUse=1 WtCom= 1.00D+00 WtEn= 0.00D+00
 Coeff-Com:  0.634D-01 0.231D+00 0.706D+00
 Coeff:      0.634D-01 0.231D+00 0.706D+00
 Gap=     0.079 Goal=   None    Shift=    0.000
 RMSDP=9.77D-07 MaxDP=3.50D-05 DE=-4.21D-07 OVMax= 1.75D-04

 Cycle  12  Pass 1  IDiag  1:
 RMSU=  5.92D-07    CP:  1.00D+00  9.51D-01  6.69D-01
 E= -694.736816047958     Delta-E=       -0.000000023168 Rises=F Damp=F
 DIIS: error= 1.27D-05 at cycle   4 NSaved=   4.
 NSaved= 4 IEnMin= 4 EnMin= -694.736816047958     IErMin= 4 ErrMin= 1.27D-05
 ErrMax= 1.27D-05  0.00D+00 EMaxC= 1.00D-01 BMatC= 2.09D-08 BMatP= 4.01D-08
 IDIUse=1 WtCom= 1.00D+00 WtEn= 0.00D+00
 Coeff-Com: -0.693D-02 0.129D+00 0.511D+00 0.368D+00
 Coeff:     -0.693D-02 0.129D+00 0.511D+00 0.368D+00
 Gap=     0.079 Goal=   None    Shift=    0.000
 RMSDP=4.93D-07 MaxDP=2.29D-05 DE=-2.32D-08 OVMax= 1.00D-04

 Cycle  13  Pass 1  IDiag  1:
 RMSU=  1.31D-07    CP:  1.00D+00  9.48D-01  7.81D-01  3.17D-01
 E= -694.736816072792     Delta-E=       -0.000000024834 Rises=F Damp=F
 DIIS: error= 2.06D-06 at cycle   5 NSaved=   5.
 NSaved= 5 IEnMin= 5 EnMin= -694.736816072792     IErMin= 5 ErrMin= 2.06D-06
 ErrMax= 2.06D-06  0.00D+00 EMaxC= 1.00D-01 BMatC= 4.43D-10 BMatP= 2.09D-08
 IDIUse=1 WtCom= 1.00D+00 WtEn= 0.00D+00
 Coeff-Com: -0.662D-02 0.691D-01 0.273D+00 0.226D+00 0.438D+00
 Coeff:     -0.662D-02 0.691D-01 0.273D+00 0.226D+00 0.438D+00
 Gap=     0.079 Goal=   None    Shift=    0.000
 RMSDP=7.55D-08 MaxDP=3.86D-06 DE=-2.48D-08 OVMax= 1.32D-05

 Cycle  14  Pass 1  IDiag  1:
 RMSU=  4.36D-08    CP:  1.00D+00  9.49D-01  7.68D-01  3.65D-01  6.46D-01
 E= -694.736816073365     Delta-E=       -0.000000000572 Rises=F Damp=F
 DIIS: error= 3.34D-07 at cycle   6 NSaved=   6.
 NSaved= 6 IEnMin= 6 EnMin= -694.736816073365     IErMin= 6 ErrMin= 3.34D-07
 ErrMax= 3.34D-07  0.00D+00 EMaxC= 1.00D-01 BMatC= 2.40D-11 BMatP= 4.43D-10
 IDIUse=1 WtCom= 1.00D+00 WtEn= 0.00D+00
 Coeff-Com: -0.197D-02 0.195D-01 0.667D-01 0.643D-01 0.197D+00 0.654D+00
 Coeff:     -0.197D-02 0.195D-01 0.667D-01 0.643D-01 0.197D+00 0.654D+00
 Gap=     0.079 Goal=   None    Shift=    0.000
 RMSDP=2.04D-08 MaxDP=9.77D-07 DE=-5.72D-10 OVMax= 3.01D-06

 Cycle  15  Pass 1  IDiag  1:
 RMSU=  1.68D-08    CP:  1.00D+00  9.49D-01  7.67D-01  3.76D-01  6.91D-01
                    CP:  8.53D-01
 E= -694.736816073384     Delta-E=       -0.000000000020 Rises=F Damp=F
 DIIS: error= 2.22D-07 at cycle   7 NSaved=   7.
 NSaved= 7 IEnMin= 7 EnMin= -694.736816073384     IErMin= 7 ErrMin= 2.22D-07
 ErrMax= 2.22D-07  0.00D+00 EMaxC= 1.00D-01 BMatC= 1.05D-11 BMatP= 2.40D-11
 IDIUse=1 WtCom= 1.00D+00 WtEn= 0.00D+00
 Coeff-Com: -0.883D-04-0.144D-02-0.149D-01-0.582D-02 0.464D-01 0.468D+00
 Coeff-Com:  0.508D+00
 Coeff:     -0.883D-04-0.144D-02-0.149D-01-0.582D-02 0.464D-01 0.468D+00
 Coeff:      0.508D+00
 Gap=     0.079 Goal=   None    Shift=    0.000
 RMSDP=9.15D-09 MaxDP=3.68D-07 DE=-1.96D-11 OVMax= 9.15D-07

 SCF Done:  E(RB3LYP) =  -694.736816073     A.U. after   15 cycles
            NFock= 15  Conv=0.91D-08     -V/T= 2.0101
 KE= 6.878008063931D+02 PE=-3.554355227412D+03 EE= 1.191226358364D+03
 Leave Link  502 at Tue Jun  8 18:43:47 2021, MaxMem=    33554432 cpu:       264.9
 (Enter /opt/app/gaussian09/e01/g09/l801.exe)
 DoSCS=F DFT=T ScalE2(SS,OS)=  1.000000  1.000000
 ExpMin= 1.61D-01 ExpMax= 4.17D+03 ExpMxC= 6.27D+02 IAcc=3 IRadAn=         5 AccDes= 0.00D+00
 HarFok:  IExCor=  205 AccDes= 0.00D+00 IRadAn=         5 IDoV=-2 UseB2=F ITyADJ=14
 ICtDFT= 12500011 ScaDFX=  1.000000  1.000000  1.000000  1.000000
 Largest valence mixing into a core orbital is  5.35D-05
 Largest core mixing into a valence orbital is  1.31D-05
 Range of M.O.s used for correlation:    18   370
 NBasis=   370 NAE=    63 NBE=    63 NFC=    17 NFV=     0
 NROrb=    353 NOA=    46 NOB=    46 NVA=   307 NVB=   307

 **** Warning!!: The smallest alpha delta epsilon is  0.78820628D-01

 Leave Link  801 at Tue Jun  8 18:43:50 2021, MaxMem=    33554432 cpu:         1.5
 (Enter /opt/app/gaussian09/e01/g09/l914.exe)
 RHF ground state
 MDV=    33554432 DFT=T DoStab=F Mixed=T DoRPA=T DoScal=F NonHer=T
 Would need an additional          7077900000 words for in-memory AO integral storage.
 Making orbital integer symmetry assigments:
    40 initial guesses have been made.
 Convergence on wavefunction:    0.001000000000000
 Davidson Disk Diagonalization:  ConvIn= 1.00D-03 SkipCon=T Conv= 1.00D-03.
 Max sub-space:   200 roots to seek:    40 dimension of matrix:        28244
 Iteration     1 Dimension    40 NMult     0 NNew     40
 CISAX will form    40 AO SS matrices at one time.
 NMat=    40 NSing=    40 JSym2X= 0.
 FoFJK:  IHMeth= 1 ICntrl=       0 DoSepK=F KAlg= 0 I1Cent=   0 FoldK=F
 IRaf=         0 NMat=  80 IRICut=     100 DoRegI=T DoRafI=T ISym2E= 0.
 FoFCou: FMM=F IPFlag=           0 FMFlag=      100000 FMFlg1=           0
         NFxFlg=           0 DoJE=F BraDBF=F KetDBF=F FulRan=T
         wScrn=  0.000000 ICntrl=       0 IOpCl=  0 I1Cent=           0 NGrid=           0
         NMat0=   80 NMatS0=     40 NMatT0=    0 NMatD0=   80 NMtDS0=    0 NMtDT0=    0
 Symmetry not used in FoFCou.
 New state      3 was old state      4
 New state      4 was old state      6
 New state      5 was old state      3
 New state      6 was old state      7
 New state      7 was old state      9
 New state      8 was old state     15
 New state      9 was old state     12
 New state     10 was old state      8
 Excitation Energies [eV] at current iteration:
 Root      1 :     2.908036790535619
 Root      2 :     3.581793251832814
 Root      3 :     4.638757494557306
 Root      4 :     4.971239735865847
 Root      5 :     5.205785655003628
 Root      6 :     5.624593923894261
 Root      7 :     6.128140940206944
 Root      8 :     6.155452654002440
 Root      9 :     6.285468469236717
 Root     10 :     6.316636161065649
 Root     11 :     6.343481934735665
 Root     12 :     6.382363859628516
 Root     13 :     6.625248967254022
 Root     14 :     6.667910745526506
 Root     15 :     6.669611188363133
 Root     16 :     6.749475009489585
 Root     17 :     6.778387647370923
 Root     18 :     6.869805083549982
 Root     19 :     6.959343152847589
 Root     20 :     6.978182519787518
 Root     21 :     7.104510089940325
 Root     22 :     7.193259458854519
 Root     23 :     7.289639464747695
 Root     24 :     7.328109362394492
 Root     25 :     7.454902863603603
 Root     26 :     7.531436212924687
 Root     27 :     7.533785409192815
 Root     28 :     7.545833007880751
 Root     29 :     7.711580706525155
 Root     30 :     7.715145154297170
 Root     31 :     7.720717781685128
 Root     32 :     7.781592366724168
 Root     33 :     7.822664915666579
 Root     34 :     7.889596501985577
 Root     35 :     7.911936510169126
 Root     36 :     7.934440345098056
 Root     37 :     7.996160727774817
 Root     38 :     8.170836916956075
 Root     39 :     8.602125336739416
 Root     40 :     9.151412369181253
 Iteration     2 Dimension    60 NMult    40 NNew     20
 CISAX will form    20 AO SS matrices at one time.
 NMat=    20 NSing=    20 JSym2X= 0.
 Root      1 not converged, maximum delta is    0.034969901793729
 Root      2 not converged, maximum delta is    0.051550450557316
 New state      3 was old state      5
 Root      3 not converged, maximum delta is    0.067560660469593
 New state      4 was old state      3
 Root      4 not converged, maximum delta is    0.162185008151549
 New state      5 was old state      4
 Root      5 not converged, maximum delta is    0.168761785915750
 Root      6 not converged, maximum delta is    0.106817505261128
 Root      7 not converged, maximum delta is    0.113905443359564
 New state      8 was old state     10
 Root      8 not converged, maximum delta is    0.096772379908120
 New state      9 was old state      8
 Root      9 not converged, maximum delta is    0.055618234690750
 New state     10 was old state      9
 Root     10 not converged, maximum delta is    0.039548004172406
 Excitation Energies [eV] at current iteration:
 Root      1 :     2.531105287900915   Change is   -0.376931502634703
 Root      2 :     3.345385632017225   Change is   -0.236407619815588
 Root      3 :     4.455270524485959   Change is   -0.750515130517669
 Root      4 :     4.494785651126873   Change is   -0.143971843430433
 Root      5 :     4.851321784032478   Change is   -0.119917951833370
 Root      6 :     5.420678634304363   Change is   -0.203915289589898
 Root      7 :     6.005477671541493   Change is   -0.122663268665451
 Root      8 :     6.075073632337861   Change is   -0.241562528727788
 Root      9 :     6.106390827828333   Change is   -0.049061826174107
 Root     10 :     6.259236082367172   Change is   -0.026232386869545
 Iteration     3 Dimension    80 NMult    60 NNew     20
 CISAX will form    20 AO SS matrices at one time.
 NMat=    20 NSing=    20 JSym2X= 0.
 Root      1 not converged, maximum delta is    0.007754172834599
 Root      2 not converged, maximum delta is    0.003160286276703
 Root      3 not converged, maximum delta is    0.012638890427476
 Root      4 not converged, maximum delta is    0.012467836766347
 Root      5 not converged, maximum delta is    0.008913265717994
 Root      6 not converged, maximum delta is    0.012713383415671
 New state      7 was old state      8
 Root      7 not converged, maximum delta is    0.326006604337498
 New state      8 was old state      7
 Root      8 not converged, maximum delta is    0.007969315292814
 Root      9 not converged, maximum delta is    0.003703697702965
 No map to state     10
 Excitation Energies [eV] at current iteration:
 Root      1 :     2.515208688937526   Change is   -0.015896598963390
 Root      2 :     3.342575450510016   Change is   -0.002810181507210
 Root      3 :     4.414271302582820   Change is   -0.040999221903140
 Root      4 :     4.490422354452250   Change is   -0.004363296674622
 Root      5 :     4.849276485817287   Change is   -0.002045298215190
 Root      6 :     5.413628005942081   Change is   -0.007050628362283
 Root      7 :     5.924655584736585   Change is   -0.150418047601276
 Root      8 :     6.001939961882936   Change is   -0.003537709658557
 Root      9 :     6.105372489232187   Change is   -0.001018338596146
 Root     10 :     6.155000361465001
 Iteration     4 Dimension   100 NMult    80 NNew     20
 CISAX will form    20 AO SS matrices at one time.
 NMat=    20 NSing=    20 JSym2X= 0.
 Root      1 not converged, maximum delta is    0.001824420005407
 Root      2 has converged.
 Root      3 not converged, maximum delta is    0.002295416884465
 Root      4 not converged, maximum delta is    0.001296093306983
 Root      5 not converged, maximum delta is    0.001328752197132
 Root      6 not converged, maximum delta is    0.001105298568891
 Root      7 not converged, maximum delta is    0.205212812356589
 Root      8 not converged, maximum delta is    0.001488568955923
 New state      9 was old state     10
 Root      9 not converged, maximum delta is    0.112208258749914
 New state     10 was old state      9
 Root     10 has converged.
 Excitation Energies [eV] at current iteration:
 Root      1 :     2.514099826159751   Change is   -0.001108862777775
 Root      2 :     3.342380341311518   Change is   -0.000195109198498
 Root      3 :     4.410671681216971   Change is   -0.003599621365849
 Root      4 :     4.490122785891771   Change is   -0.000299568560480
 Root      5 :     4.849062576293265   Change is   -0.000213909524023
 Root      6 :     5.413104348971763   Change is   -0.000523656970317
 Root      7 :     5.813020321860448   Change is   -0.111635262876136
 Root      8 :     6.001549687126352   Change is   -0.000390274756584
 Root      9 :     6.096344564671103   Change is   -0.058655796793898
 Root     10 :     6.105287899641644   Change is   -0.000084589590543
 Iteration     5 Dimension   116 NMult   100 NNew     16
 CISAX will form    16 AO SS matrices at one time.
 NMat=    16 NSing=    16 JSym2X= 0.
 Root      1 has converged.
 Root      2 has converged.
 Root      3 has converged.
 Root      4 has converged.
 Root      5 has converged.
 Root      6 has converged.
 Root      7 not converged, maximum delta is    0.009493581802303
 Root      8 has converged.
 Root      9 not converged, maximum delta is    0.004655665104604
 Root     10 has converged.
 Excitation Energies [eV] at current iteration:
 Root      1 :     2.514074592443851   Change is   -0.000025233715900
 Root      2 :     3.342376257706746   Change is   -0.000004083604772
 Root      3 :     4.410540039311231   Change is   -0.000131641905740
 Root      4 :     4.490108411653908   Change is   -0.000014374237862
 Root      5 :     4.849049094364514   Change is   -0.000013481928750
 Root      6 :     5.413061160245127   Change is   -0.000043188726636
 Root      7 :     5.805770650467446   Change is   -0.007249671393003
 Root      8 :     6.001515531891464   Change is   -0.000034155234888
 Root      9 :     6.094574016779384   Change is   -0.001770547891720
 Root     10 :     6.105287898686534   Change is   -0.000000000955111
 Iteration     6 Dimension   120 NMult   116 NNew      4
 CISAX will form     4 AO SS matrices at one time.
 NMat=     4 NSing=     4 JSym2X= 0.
 Root      1 has converged.
 Root      2 has converged.
 Root      3 has converged.
 Root      4 has converged.
 Root      5 has converged.
 Root      6 has converged.
 Root      7 not converged, maximum delta is    0.001255306336157
 Root      8 has converged.
 Root      9 has converged.
 Root     10 has converged.
 Excitation Energies [eV] at current iteration:
 Root      1 :     2.514074482188669   Change is   -0.000000110255182
 Root      2 :     3.342376257692529   Change is   -0.000000000014216
 Root      3 :     4.410540039295947   Change is   -0.000000000015284
 Root      4 :     4.490107886663129   Change is   -0.000000524990779
 Root      5 :     4.849048839597455   Change is   -0.000000254767059
 Root      6 :     5.413061160222576   Change is   -0.000000000022552
 Root      7 :     5.805268183686567   Change is   -0.000502466780878
 Root      8 :     6.001515531648438   Change is   -0.000000000243026
 Root      9 :     6.094474705608505   Change is   -0.000099311170878
 Root     10 :     6.105287898665125   Change is   -0.000000000021409
 Iteration     7 Dimension   122 NMult   120 NNew      2
 CISAX will form     2 AO SS matrices at one time.
 NMat=     2 NSing=     2 JSym2X= 0.
 Root      1 has converged.
 Root      2 has converged.
 Root      3 has converged.
 Root      4 has converged.
 Root      5 has converged.
 Root      6 has converged.
 Root      7 has converged.
 Root      8 has converged.
 Root      9 has converged.
 Root     10 has converged.
 Excitation Energies [eV] at current iteration:
 Root      1 :     2.514074471620837   Change is   -0.000000010567832
 Root      2 :     3.342376257675313   Change is   -0.000000000017217
 Root      3 :     4.410540039244672   Change is   -0.000000000051276
 Root      4 :     4.490107864715166   Change is   -0.000000021947962
 Root      5 :     4.849048801766989   Change is   -0.000000037830467
 Root      6 :     5.413061160214344   Change is   -0.000000000008232
 Root      7 :     5.805228779562201   Change is   -0.000039404124366
 Root      8 :     6.001515531564059   Change is   -0.000000000084378
 Root      9 :     6.094466284952463   Change is   -0.000008420656043
 Root     10 :     6.105287898649491   Change is   -0.000000000015633
 Convergence achieved on expansion vectors.
 ***********************************************************************
 Excited states from <AA,BB:AA,BB> singles matrix:
 ***********************************************************************
 
 1PDM for each excited state written to RWF  633
 Ground to excited state transition densities written to RWF  633
 Ground to excited state transition electric dipole moments (Au):
       state          X           Y           Z        Dip. S.      Osc.
         1         6.7037      0.0000     -0.0006     44.9400      2.7680
         2         0.0004     -0.3320      0.0000      0.1102      0.0090
         3        -0.0001      0.2382     -0.0001      0.0567      0.0061
         4        -0.1502     -0.0001      0.0003      0.0226      0.0025
         5         0.1029     -0.0000     -0.0001      0.0106      0.0013
         6         0.0001      0.1299     -0.0000      0.0169      0.0022
         7         1.0196      0.0000     -0.0025      1.0395      0.1478
         8         0.0002     -0.1781     -0.0000      0.0317      0.0047
         9        -0.0306      0.0000     -0.0000      0.0009      0.0001
        10         0.0000     -0.0000     -0.0000      0.0000      0.0000
 Ground to excited state transition velocity dipole moments (Au):
       state          X           Y           Z        Dip. S.      Osc.
         1        -0.5936     -0.0000      0.0001      0.3524      2.5429
         2        -0.0001      0.0414      0.0000      0.0017      0.0093
         3         0.0000     -0.0329      0.0000      0.0011      0.0044
         4         0.0255      0.0000     -0.0001      0.0007      0.0026
         5        -0.0197      0.0000      0.0000      0.0004      0.0015
         6        -0.0000     -0.0284      0.0000      0.0008      0.0027
         7        -0.2099     -0.0000      0.0005      0.0441      0.1377
         8        -0.0000      0.0401      0.0000      0.0016      0.0049
         9         0.0040     -0.0000      0.0000      0.0000      0.0000
        10        -0.0000      0.0000      0.0000      0.0000      0.0000
 Ground to excited state transition magnetic dipole moments (Au):
       state          X           Y           Z
         1         0.0006      0.0000      0.0329
         2        -0.0000      0.0007      0.0000
         3        -0.0001      0.0047      0.0002
         4        -0.0004      0.0001      0.3906
         5        -0.0001      0.0000      0.4804
         6         0.0000     -0.0018      0.0000
         7         0.0031     -0.0002     -0.4421
         8         0.0000     -0.0014     -0.0001
         9         0.0006     -0.0001     -0.4169
        10        -0.0000     -0.0114     -0.0001
 Ground to excited state transition velocity quadrupole moments (Au):
       state          XX          YY          ZZ          XY          XZ          YZ
         1        -0.0000     -0.0000     -0.0000      0.0985      0.0000     -0.0002
         2         1.5037      0.0359      0.0053      0.0000     -0.0004     -0.0000
         3        11.1752      0.1573      0.0432      0.0002     -0.0039      0.0000
         4        -0.0056     -0.0001     -0.0000      0.3453     -0.0000      0.0001
         5        -0.0010     -0.0000     -0.0000      0.2913     -0.0000      0.0001
         6        -0.8052     -0.0414     -0.0097      0.0001      0.0017     -0.0000
         7         0.0002     -0.0000      0.0000      0.1734      0.0001      0.0003
         8        -0.3467     -0.0014      0.0004      0.0000      0.0020      0.0000
         9         0.0002      0.0000      0.0000     -0.3688      0.0001     -0.0001
        10        -0.0014      0.0000      0.0000     -0.0001      0.0090     -0.0000
 <0|del|b> * <b|rxdel|0> + <0|del|b> * <b|delr+rdel|0>
 Rotatory Strengths (R) in cgs (10**-40 erg-esu-cm/Gauss)
       state          XX          YY          ZZ    R(velocity)    E-M Angle
         1         0.0272     -1.0568     -1.7454     -0.9250       91.06
         2         0.1292      0.0000      0.0277      0.0523       90.00
         3        -0.6213     -0.0000     -0.0587     -0.2267       90.00
         4        -0.1014     -0.0202     -0.0255     -0.0490       90.00
         5         0.0046     -0.0001      0.0097      0.0047       90.00
         6         0.1776     -0.0000      0.0062      0.0613       90.00
         7        -0.2215     -1.6867     -0.9854     -0.9645       90.54
         8        -0.2210     -0.0000      0.0381     -0.0609       90.00
         9        -0.0358      0.0009      0.0046     -0.0101       90.00
        10        -0.0005      0.0000     -0.0001     -0.0002       90.00
 1/2[<0|r|b>*<b|rxdel|0> + (<0|rxdel|b>*<b|r|0>)*]
 Rotatory Strengths (R) in cgs (10**-40 erg-esu-cm/Gauss)
       state          XX          YY          ZZ     R(length)
         1        -2.9095     -0.0000      0.0133     -0.9654
         2         0.0000      0.1545     -0.0000      0.0515
         3        -0.0000     -0.7990      0.0000     -0.2663
         4        -0.0383      0.0000     -0.0807     -0.0397
         5         0.0078      0.0000      0.0362      0.0147
         6        -0.0000      0.1674      0.0000      0.0558
         7        -2.2428      0.0000     -0.7736     -1.0054
         8        -0.0000     -0.1792     -0.0000     -0.0597
         9         0.0133      0.0000     -0.0035      0.0033
        10         0.0000     -0.0003     -0.0000     -0.0001
  1/2[<0|del|b>*<b|r|0> + (<0|r|b>*<b|del|0>)*] (Au)
       state          X           Y           Z        Dip. S.   Osc.(frdel)
         1        -3.9796     -0.0000     -0.0000      3.9796      2.6531
         2        -0.0000     -0.0137      0.0000      0.0137      0.0092
         3        -0.0000     -0.0078     -0.0000      0.0078      0.0052
         4        -0.0038     -0.0000     -0.0000      0.0038      0.0026
         5        -0.0020     -0.0000     -0.0000      0.0020      0.0014
         6        -0.0000     -0.0037     -0.0000      0.0037      0.0025
         7        -0.2141     -0.0000     -0.0000      0.2141      0.1427
         8        -0.0000     -0.0071     -0.0000      0.0071      0.0048
         9        -0.0001     -0.0000     -0.0000      0.0001      0.0001
        10        -0.0000     -0.0000     -0.0000      0.0000      0.0000

 Excitation energies and oscillator strengths:
 
 Excited state symmetry could not be determined.
 Excited State   1:      Singlet-?Sym    2.5141 eV  493.16 nm  f=2.7680  <S**2>=0.000
      63 -> 64         0.72497
      63 <- 64        -0.18092
 This state for optimization and/or second-order correction.
 Total Energy, E(TD-HF/TD-KS) =  -694.644425533    
 Copying the excited state density for this state as the 1-particle RhoCI density.
 
 Excited state symmetry could not be determined.
 Excited State   2:      Singlet-?Sym    3.3424 eV  370.95 nm  f=0.0090  <S**2>=0.000
      62 -> 64         0.57133
      63 -> 65        -0.41620
 
 Excited state symmetry could not be determined.
 Excited State   3:      Singlet-?Sym    4.4105 eV  281.11 nm  f=0.0061  <S**2>=0.000
      62 -> 64         0.42413
      63 -> 65         0.57517
      62 <- 64        -0.10894
      63 <- 65        -0.10416
 
 Excited state symmetry could not be determined.
 Excited State   4:      Singlet-?Sym    4.4901 eV  276.13 nm  f=0.0025  <S**2>=0.000
      61 -> 64         0.63398
      62 -> 65         0.28212
      63 -> 66         0.12851
 
 Excited state symmetry could not be determined.
 Excited State   5:      Singlet-?Sym    4.8490 eV  255.69 nm  f=0.0013  <S**2>=0.000
      61 -> 64         0.11363
      62 -> 65        -0.47659
      63 -> 66         0.50343
 
 Excited state symmetry could not be determined.
 Excited State   6:      Singlet-?Sym    5.4131 eV  229.05 nm  f=0.0022  <S**2>=0.000
      60 -> 64         0.67519
      61 -> 65        -0.12767
      62 -> 66         0.12851
 
 Excited state symmetry could not be determined.
 Excited State   7:      Singlet-?Sym    5.8052 eV  213.57 nm  f=0.1478  <S**2>=0.000
      61 -> 64        -0.28858
      62 -> 65         0.42728
      63 -> 66         0.46952
 
 Excited state symmetry could not be determined.
 Excited State   8:      Singlet-?Sym    6.0015 eV  206.59 nm  f=0.0047  <S**2>=0.000
      61 -> 65        -0.42932
      63 -> 67         0.54838
 
 Excited state symmetry could not be determined.
 Excited State   9:      Singlet-?Sym    6.0945 eV  203.44 nm  f=0.0001  <S**2>=0.000
      59 -> 64         0.68305
 
 Excited state symmetry could not be determined.
 Excited State  10:      Singlet-?Sym    6.1053 eV  203.08 nm  f=0.0000  <S**2>=0.000
      57 -> 64         0.70133
 SavETr:  write IOETrn=   770 NScale= 10 NData=  16 NLR=1 NState=   10 LETran=     190.
 Leave Link  914 at Tue Jun  8 19:06:05 2021, MaxMem=    33554432 cpu:      1332.6
 (Enter /opt/app/gaussian09/e01/g09/l601.exe)
 Copying SCF densities to generalized density rwf, IOpCl= 0 IROHF=0.

 **********************************************************************

            Population analysis using the SCF density.

 **********************************************************************

 Alpha  occ. eigenvalues --  -14.49622 -14.49621 -10.35055 -10.35054 -10.32732
 Alpha  occ. eigenvalues --  -10.32731 -10.32499 -10.32498 -10.30916 -10.30916
 Alpha  occ. eigenvalues --  -10.30337 -10.30336 -10.28791 -10.28790 -10.28314
 Alpha  occ. eigenvalues --  -10.28313 -10.28281  -1.07694  -1.07693  -0.93034
 Alpha  occ. eigenvalues --   -0.91905  -0.89769  -0.87041  -0.84102  -0.83828
 Alpha  occ. eigenvalues --   -0.83827  -0.81004  -0.77737  -0.73544  -0.69150
 Alpha  occ. eigenvalues --   -0.67092  -0.66880  -0.65599  -0.65384  -0.61862
 Alpha  occ. eigenvalues --   -0.61527  -0.59890  -0.59688  -0.57896  -0.57895
 Alpha  occ. eigenvalues --   -0.56260  -0.55432  -0.52746  -0.52460  -0.51463
 Alpha  occ. eigenvalues --   -0.51457  -0.51455  -0.50788  -0.49937  -0.49610
 Alpha  occ. eigenvalues --   -0.49447  -0.48315  -0.47394  -0.46816  -0.45762
 Alpha  occ. eigenvalues --   -0.45599  -0.45150  -0.44946  -0.43131  -0.40523
 Alpha  occ. eigenvalues --   -0.37004  -0.32491  -0.27208
 Alpha virt. eigenvalues --   -0.19326  -0.12770  -0.07232  -0.02985  -0.01642
 Alpha virt. eigenvalues --   -0.01465  -0.00665  -0.00340  -0.00154   0.00944
 Alpha virt. eigenvalues --    0.01547   0.02550   0.02568   0.03429   0.03731
 Alpha virt. eigenvalues --    0.04208   0.04874   0.05167   0.05172   0.05342
 Alpha virt. eigenvalues --    0.05712   0.06265   0.06619   0.07378   0.07930
 Alpha virt. eigenvalues --    0.09043   0.09043   0.09566   0.09715   0.10851
 Alpha virt. eigenvalues --    0.11718   0.12595   0.13160   0.17107   0.20200
 Alpha virt. eigenvalues --    0.22120   0.24134   0.24754   0.25316   0.27985
 Alpha virt. eigenvalues --    0.29097   0.29961   0.30906   0.31286   0.33569
 Alpha virt. eigenvalues --    0.38241   0.38253   0.38491   0.39908   0.40379
 Alpha virt. eigenvalues --    0.41447   0.42501   0.42823   0.43633   0.44113
 Alpha virt. eigenvalues --    0.46298   0.46495   0.47204   0.47508   0.47602
 Alpha virt. eigenvalues --    0.48953   0.49488   0.49695   0.49819   0.50168
 Alpha virt. eigenvalues --    0.50863   0.52497   0.52635   0.53763   0.54398
 Alpha virt. eigenvalues --    0.54677   0.56064   0.56950   0.58496   0.60350
 Alpha virt. eigenvalues --    0.60388   0.60413   0.63977   0.64995   0.64996
 Alpha virt. eigenvalues --    0.65292   0.69178   0.69180   0.70003   0.71310
 Alpha virt. eigenvalues --    0.72090   0.72253   0.72585   0.73495   0.73648
 Alpha virt. eigenvalues --    0.73802   0.74311   0.75179   0.75189   0.76938
 Alpha virt. eigenvalues --    0.76982   0.78584   0.78751   0.79137   0.79173
 Alpha virt. eigenvalues --    0.79262   0.79686   0.80780   0.81010   0.82225
 Alpha virt. eigenvalues --    0.82393   0.83935   0.84685   0.86424   0.87478
 Alpha virt. eigenvalues --    0.90481   0.90709   0.92955   0.93527   0.94766
 Alpha virt. eigenvalues --    0.96070   0.96369   0.96847   0.98917   1.05753
 Alpha virt. eigenvalues --    1.09841   1.10063   1.12779   1.15435   1.15481
 Alpha virt. eigenvalues --    1.17160   1.17685   1.17857   1.17914   1.19785
 Alpha virt. eigenvalues --    1.20540   1.21237   1.21350   1.21838   1.22445
 Alpha virt. eigenvalues --    1.24168   1.24371   1.25410   1.26898   1.27101
 Alpha virt. eigenvalues --    1.28070   1.31905   1.33556   1.35872   1.39611
 Alpha virt. eigenvalues --    1.39995   1.40408   1.42551   1.43175   1.43623
 Alpha virt. eigenvalues --    1.54810   1.54915   1.60489   1.60495   1.70156
 Alpha virt. eigenvalues --    1.70408   1.70797   1.71609   1.71629   1.71720
 Alpha virt. eigenvalues --    1.72540   1.73745   1.74908   1.75322   1.76237
 Alpha virt. eigenvalues --    1.78646   1.79151   1.79427   1.81733   1.82339
 Alpha virt. eigenvalues --    1.82732   1.83833   1.84270   1.85859   1.86404
 Alpha virt. eigenvalues --    1.86698   1.89685   1.92140   1.92265   1.92414
 Alpha virt. eigenvalues --    1.92437   1.92501   1.93586   1.95534   1.95590
 Alpha virt. eigenvalues --    1.96542   1.96662   1.98140   1.99055   1.99267
 Alpha virt. eigenvalues --    2.01445   2.02062   2.02405   2.03244   2.03376
 Alpha virt. eigenvalues --    2.04010   2.06403   2.07198   2.09454   2.11681
 Alpha virt. eigenvalues --    2.12934   2.13126   2.13869   2.17542   2.21021
 Alpha virt. eigenvalues --    2.21144   2.22846   2.23371   2.24811   2.25206
 Alpha virt. eigenvalues --    2.25492   2.30202   2.31467   2.31605   2.33374
 Alpha virt. eigenvalues --    2.34998   2.36508   2.36516   2.39604   2.40880
 Alpha virt. eigenvalues --    2.41236   2.42143   2.42629   2.42800   2.44037
 Alpha virt. eigenvalues --    2.45665   2.45798   2.46251   2.49230   2.50063
 Alpha virt. eigenvalues --    2.50922   2.51374   2.51793   2.52395   2.55669
 Alpha virt. eigenvalues --    2.56465   2.56658   2.57513   2.59302   2.59761
 Alpha virt. eigenvalues --    2.60594   2.60612   2.61438   2.64248   2.65052
 Alpha virt. eigenvalues --    2.67341   2.69985   2.70072   2.71796   2.72579
 Alpha virt. eigenvalues --    2.73482   2.73486   2.76382   2.77736   2.77742
 Alpha virt. eigenvalues --    2.78869   2.78947   2.82643   2.83412   2.85082
 Alpha virt. eigenvalues --    2.86260   2.90242   2.91541   2.97209   2.97255
 Alpha virt. eigenvalues --    3.00168   3.00186   3.07282   3.07348   3.11709
 Alpha virt. eigenvalues --    3.11716   3.25984   3.26770   3.28458   3.30489
 Alpha virt. eigenvalues --    3.30492   3.30674   3.30986   3.30987   3.33251
 Alpha virt. eigenvalues --    3.33725   3.34159   3.38206   3.38361   3.44005
 Alpha virt. eigenvalues --    3.45898   3.50392   3.53681   3.57665   3.58443
 Alpha virt. eigenvalues --    3.93359   3.94032   4.03062   4.03547   4.04706
 Alpha virt. eigenvalues --    4.06992   4.10803   4.15493   4.23371   4.31600
 Alpha virt. eigenvalues --    4.35936   4.36017   4.37914   4.43365   4.50884
 Alpha virt. eigenvalues --    4.59426   4.66026
     Molecular Orbital Coefficients:
                           1         2         3         4         5
                           O         O         O         O         O
     Eigenvalues --   -14.49622 -14.49621 -10.35055 -10.35054 -10.32732
   1 1   C  1S         -0.00000   0.00000  -0.00000   0.00003  -0.00000
   2        2S         -0.00000   0.00002  -0.00000   0.00000   0.00000
   3        2PX         0.00000  -0.00001   0.00001  -0.00011   0.00000
   4        2PY         0.00000   0.00001   0.00000   0.00009   0.00000
   5        2PZ        -0.00000  -0.00000   0.00000  -0.00000  -0.00000
   6        3S          0.00001  -0.00044  -0.00003  -0.00261  -0.00008
   7        3PX        -0.00001  -0.00003  -0.00014   0.00110  -0.00004
   8        3PY        -0.00000  -0.00015  -0.00002  -0.00153  -0.00003
   9        3PZ        -0.00000  -0.00000  -0.00000   0.00000   0.00000
  10        4XX         0.00000  -0.00000  -0.00000   0.00004  -0.00000
  11        4YY        -0.00000   0.00001  -0.00000   0.00004   0.00000
  12        4ZZ        -0.00000   0.00000  -0.00000  -0.00001  -0.00000
  13        4XY        -0.00000   0.00002  -0.00000   0.00004  -0.00000
  14        4XZ         0.00000  -0.00000   0.00000  -0.00000   0.00000
  15        4YZ        -0.00000  -0.00000  -0.00000   0.00000   0.00000
  16 2   H  1S         -0.00000  -0.00001  -0.00001  -0.00011  -0.00000
  17        2S         -0.00000  -0.00003   0.00000  -0.00033  -0.00000
  18        3PX         0.00000  -0.00000   0.00000  -0.00005   0.00000
  19        3PY        -0.00000  -0.00000   0.00000   0.00000   0.00000
  20        3PZ        -0.00000   0.00000   0.00000  -0.00000  -0.00000
  21 3   C  1S          0.00000  -0.00000   0.00000  -0.00003  -0.00000
  22        2S          0.00000  -0.00002   0.00001  -0.00015  -0.00000
  23        2PX         0.00000   0.00001   0.00000   0.00000  -0.00000
  24        2PY        -0.00000   0.00000   0.00000  -0.00001   0.00000
  25        2PZ         0.00000   0.00000   0.00000  -0.00000   0.00000
  26        3S         -0.00005   0.00026  -0.00014   0.00209   0.00005
  27        3PX         0.00002   0.00003   0.00004   0.00157   0.00002
  28        3PY         0.00001  -0.00008   0.00001  -0.00064  -0.00005
  29        3PZ         0.00000  -0.00000   0.00000   0.00000  -0.00000
  30        4XX        -0.00000   0.00001  -0.00001   0.00005  -0.00000
  31        4YY         0.00000  -0.00000   0.00000  -0.00002   0.00000
  32        4ZZ         0.00000  -0.00000   0.00000  -0.00005  -0.00000
  33        4XY        -0.00000  -0.00000   0.00000  -0.00003   0.00000
  34        4XZ        -0.00000   0.00000  -0.00000   0.00000  -0.00000
  35        4YZ        -0.00000  -0.00000   0.00000   0.00000  -0.00000
  36 4   H  1S          0.00000   0.00000   0.00000  -0.00004   0.00000
  37        2S         -0.00000  -0.00000   0.00001   0.00013   0.00002
  38        3PX        -0.00000  -0.00000  -0.00000  -0.00005  -0.00000
  39        3PY        -0.00000   0.00000  -0.00000  -0.00001  -0.00000
  40        3PZ         0.00000   0.00000   0.00000  -0.00000   0.00000
  41 5   C  1S         -0.00000   0.00000  -0.00001  -0.00001  -0.00001
  42        2S         -0.00000   0.00001  -0.00004  -0.00001  -0.00002
  43        2PX        -0.00000   0.00000  -0.00001  -0.00000   0.00000
  44        2PY        -0.00000  -0.00000  -0.00000  -0.00001   0.00000
  45        2PZ        -0.00000  -0.00000  -0.00000   0.00000  -0.00000
  46        3S          0.00007  -0.00010   0.00056   0.00024   0.00019
  47        3PX         0.00001  -0.00009  -0.00023  -0.00009  -0.00018
  48        3PY         0.00003  -0.00001   0.00019   0.00034   0.00007
  49        3PZ        -0.00000   0.00000  -0.00000  -0.00000  -0.00000
  50        4XX         0.00000  -0.00000   0.00001  -0.00001   0.00001
  51        4YY        -0.00000   0.00000  -0.00000   0.00000  -0.00000
  52        4ZZ        -0.00000   0.00000  -0.00001  -0.00001  -0.00001
  53        4XY         0.00000  -0.00000  -0.00001   0.00001  -0.00001
  54        4XZ         0.00000   0.00000   0.00000  -0.00000   0.00000
  55        4YZ        -0.00000   0.00000  -0.00000   0.00000  -0.00000
  56 6   H  1S          0.00000   0.00000   0.00000   0.00001  -0.00000
  57        2S          0.00000   0.00000   0.00001   0.00017   0.00002
  58        3PX        -0.00000   0.00000   0.00001   0.00000   0.00001
  59        3PY        -0.00000   0.00000  -0.00000   0.00000   0.00000
  60        3PZ         0.00000  -0.00000   0.00000   0.00000   0.00000
  61 7   C  1S         -0.00000  -0.00000  -0.00001   0.00443  -0.00000
  62        2S         -0.00000   0.00005  -0.00001  -0.00025  -0.00001
  63        2PX        -0.00000  -0.00000  -0.00000  -0.00025  -0.00000
  64        2PY         0.00000   0.00002   0.00000   0.00025   0.00000
  65        2PZ         0.00000  -0.00000  -0.00000   0.00000  -0.00000
  66        3S          0.00001   0.00007   0.00013   0.00563   0.00006
  67        3PX         0.00001  -0.00037  -0.00003   0.00085  -0.00004
  68        3PY        -0.00001  -0.00015  -0.00005  -0.00150  -0.00002
  69        3PZ         0.00000   0.00000   0.00000  -0.00000  -0.00000
  70        4XX         0.00000  -0.00009   0.00000  -0.00036   0.00000
  71        4YY         0.00000   0.00001   0.00000  -0.00042  -0.00000
  72        4ZZ        -0.00000  -0.00001  -0.00000  -0.00020  -0.00000
  73        4XY        -0.00000   0.00001   0.00000   0.00010   0.00000
  74        4XZ        -0.00000  -0.00000  -0.00000  -0.00000   0.00000
  75        4YZ        -0.00000  -0.00000  -0.00000   0.00000   0.00000
  76 8   H  1S          0.00000   0.00002   0.00000   0.00002  -0.00000
  77        2S          0.00000   0.00009   0.00001  -0.00014   0.00000
  78        3PX        -0.00000   0.00002   0.00000  -0.00001   0.00000
  79        3PY         0.00000   0.00000   0.00000  -0.00008   0.00000
  80        3PZ         0.00000  -0.00000  -0.00000   0.00000   0.00000
  81 9   C  1S          0.00000   0.00005  -0.00100   0.99278  -0.00000
  82        2S          0.00000   0.00023  -0.00005   0.04896   0.00000
  83        2PX         0.00000   0.00031   0.00000   0.00078   0.00000
  84        2PY        -0.00000   0.00008  -0.00000   0.00024  -0.00000
  85        2PZ         0.00000   0.00000  -0.00000   0.00000  -0.00000
  86        3S         -0.00001  -0.00038  -0.00004  -0.00996  -0.00000
  87        3PX         0.00000  -0.00009  -0.00000   0.00360   0.00001
  88        3PY        -0.00001   0.00014  -0.00001  -0.00029   0.00001
  89        3PZ        -0.00000  -0.00000  -0.00000   0.00000  -0.00000
  90        4XX        -0.00000   0.00009   0.00001  -0.00856  -0.00000
  91        4YY        -0.00000   0.00010   0.00001  -0.00915   0.00000
  92        4ZZ         0.00000  -0.00001   0.00001  -0.00967  -0.00000
  93        4XY         0.00000   0.00001  -0.00000   0.00009   0.00000
  94        4XZ        -0.00000   0.00000  -0.00000   0.00000  -0.00000
  95        4YZ        -0.00000   0.00000  -0.00000   0.00000  -0.00000
  96 10  H  1S         -0.00000  -0.00004   0.00000  -0.00039   0.00000
  97        2S         -0.00000   0.00008   0.00000   0.00206   0.00000
  98        3PX        -0.00000  -0.00006   0.00000  -0.00019  -0.00000
  99        3PY         0.00000  -0.00006   0.00000  -0.00015   0.00000
 100        3PZ         0.00000   0.00000   0.00000  -0.00000   0.00000
 101 11  N  1S          0.00013   0.99265  -0.00000  -0.00016   0.00000
 102        2S          0.00000   0.03482  -0.00000   0.00016   0.00000
 103        2PX         0.00000  -0.00007   0.00000   0.00016   0.00000
 104        2PY        -0.00000  -0.00001  -0.00000  -0.00003  -0.00000
 105        2PZ        -0.00000  -0.00000  -0.00000  -0.00000  -0.00000
 106        3S          0.00001   0.00397   0.00002  -0.00099  -0.00001
 107        3PX        -0.00000   0.00006  -0.00002   0.00239  -0.00000
 108        3PY         0.00000  -0.00007  -0.00000   0.00157  -0.00000
 109        3PZ        -0.00000   0.00000   0.00000   0.00001   0.00000
 110        4XX        -0.00000  -0.00842   0.00000  -0.00072   0.00000
 111        4YY        -0.00000  -0.00848  -0.00000  -0.00020  -0.00000
 112        4ZZ        -0.00000  -0.00834  -0.00000   0.00014  -0.00000
 113        4XY         0.00000   0.00003   0.00000  -0.00029   0.00000
 114        4XZ         0.00000   0.00000   0.00000  -0.00000   0.00000
 115        4YZ        -0.00000  -0.00000   0.00000  -0.00000   0.00000
 116 12  C  1S          0.00000   0.00000  -0.00000  -0.00000   0.00000
 117        2S          0.00000   0.00000   0.00001   0.00001   0.00001
 118        2PX         0.00000  -0.00000   0.00003  -0.00003   0.00001
 119        2PY        -0.00000  -0.00000  -0.00001  -0.00001  -0.00000
 120        2PZ        -0.00000   0.00000   0.00000  -0.00000  -0.00000
 121        3S         -0.00004  -0.00004  -0.00051  -0.00051  -0.00032
 122        3PX        -0.00003   0.00003  -0.00035   0.00035  -0.00009
 123        3PY         0.00003   0.00003   0.00021   0.00021   0.00012
 124        3PZ         0.00000  -0.00000  -0.00000   0.00000   0.00000
 125        4XX        -0.00000  -0.00000  -0.00001  -0.00001  -0.00001
 126        4YY        -0.00000  -0.00000   0.00000   0.00000   0.00000
 127        4ZZ         0.00000   0.00000  -0.00001  -0.00001   0.00000
 128        4XY         0.00000  -0.00000   0.00002  -0.00002   0.00001
 129        4XZ        -0.00000  -0.00000  -0.00000   0.00000  -0.00000
 130        4YZ        -0.00000   0.00000   0.00000  -0.00000  -0.00000
 131 13  H  1S         -0.00000  -0.00000  -0.00002  -0.00002  -0.00001
 132        2S         -0.00000  -0.00000   0.00000   0.00000  -0.00000
 133        3PX         0.00000  -0.00000   0.00001  -0.00001   0.00000
 134        3PY        -0.00000  -0.00000  -0.00000  -0.00000  -0.00000
 135        3PZ        -0.00000   0.00000   0.00000  -0.00000  -0.00000
 136 14  C  1S          0.00000  -0.00000  -0.00001  -0.00001  -0.00001
 137        2S          0.00001  -0.00000  -0.00001  -0.00004  -0.00003
 138        2PX        -0.00000   0.00000   0.00000   0.00001  -0.00000
 139        2PY        -0.00000  -0.00000  -0.00001  -0.00000  -0.00000
 140        2PZ         0.00000   0.00000  -0.00000   0.00000   0.00000
 141        3S         -0.00010   0.00007   0.00024   0.00056   0.00044
 142        3PX         0.00009  -0.00001   0.00009   0.00023  -0.00005
 143        3PY        -0.00001   0.00003   0.00034   0.00019   0.00018
 144        3PZ        -0.00000  -0.00000   0.00000  -0.00000  -0.00000
 145        4XX        -0.00000   0.00000  -0.00001   0.00001   0.00000
 146        4YY         0.00000  -0.00000   0.00000  -0.00000   0.00000
 147        4ZZ         0.00000  -0.00000  -0.00001  -0.00001  -0.00002
 148        4XY         0.00000  -0.00000  -0.00001   0.00001  -0.00001
 149        4XZ         0.00000   0.00000  -0.00000   0.00000   0.00000
 150        4YZ        -0.00000   0.00000  -0.00000  -0.00000  -0.00000
 151 15  H  1S          0.00000   0.00000   0.00001   0.00000   0.00001
 152        2S          0.00000   0.00000   0.00017   0.00002   0.00000
 153        3PX        -0.00000   0.00000  -0.00000  -0.00001   0.00000
 154        3PY         0.00000  -0.00000   0.00000  -0.00000  -0.00000
 155        3PZ         0.00000   0.00000  -0.00000   0.00000   0.00000
 156 16  C  1S         -0.00000   0.00000  -0.00003   0.00000  -0.00002
 157        2S         -0.00002   0.00000  -0.00015   0.00001  -0.00005
 158        2PX        -0.00001  -0.00000  -0.00000  -0.00000   0.00003
 159        2PY         0.00000  -0.00000  -0.00001   0.00000  -0.00001
 160        2PZ        -0.00000  -0.00000   0.00000  -0.00000  -0.00000
 161        3S          0.00026  -0.00005   0.00209  -0.00013   0.00029
 162        3PX        -0.00003  -0.00002  -0.00157  -0.00005  -0.00063
 163        3PY        -0.00008   0.00001  -0.00064   0.00001  -0.00010
 164        3PZ         0.00000  -0.00000  -0.00000  -0.00000   0.00000
 165        4XX         0.00001  -0.00000   0.00005  -0.00001   0.00000
 166        4YY        -0.00000   0.00000  -0.00002   0.00000   0.00000
 167        4ZZ        -0.00000   0.00000  -0.00005   0.00000  -0.00003
 168        4XY         0.00000   0.00000   0.00003  -0.00000   0.00003
 169        4XZ         0.00000  -0.00000  -0.00000  -0.00000   0.00000
 170        4YZ         0.00000   0.00000  -0.00000  -0.00000   0.00000
 171 17  H  1S          0.00000   0.00000  -0.00004   0.00000  -0.00002
[...]
  66         V                -0.072320          1.566814
  67         V                -0.029848          1.539254
  68         V                -0.016425          0.973268
  69         V                -0.014654          0.999103
  70         V                -0.006648          0.907447
  71         V                -0.003402          1.434021
  72         V                -0.001539          0.927805
  73         V                 0.009444          1.313465
  74         V                 0.015470          0.983662
  75         V                 0.025504          1.431587
  76         V                 0.025684          1.479097
  77         V                 0.034287          1.167548
  78         V                 0.037311          1.343336
  79         V                 0.042084          1.144060
  80         V                 0.048744          1.074446
  81         V                 0.051666          0.895900
  82         V                 0.051725          0.889177
  83         V                 0.053416          1.152217
  84         V                 0.057121          1.125508
  85         V                 0.062650          1.205493
  86         V                 0.066192          1.032180
  87         V                 0.073782          1.159297
  88         V                 0.079302          1.153938
  89         V                 0.090430          1.079481
  90         V                 0.090434          1.079244
  91         V                 0.095656          1.253746
  92         V                 0.097146          1.185294
  93         V                 0.108510          1.368214
  94         V                 0.117176          1.276807
  95         V                 0.125951          1.638280
  96         V                 0.131599          1.635266
  97         V                 0.171071          2.382627
  98         V                 0.201996          2.288339
  99         V                 0.221203          1.158188
 100         V                 0.241341          1.233946
 101         V                 0.247540          1.245116
 102         V                 0.253163          2.177773
 103         V                 0.279852          1.338753
 104         V                 0.290971          1.340474
 105         V                 0.299611          1.596026
 106         V                 0.309063          1.650853
 107         V                 0.312862          1.980387
 108         V                 0.335686          2.565624
 109         V                 0.382408          1.763660
 110         V                 0.382535          1.758858
 111         V                 0.384913          1.929375
 112         V                 0.399076          2.263027
 113         V                 0.403792          2.371958
 114         V                 0.414475          2.699152
 115         V                 0.425015          1.950653
 116         V                 0.428225          2.114004
 117         V                 0.436327          1.819060
 118         V                 0.441132          1.953608
 119         V                 0.462976          2.044195
 120         V                 0.464955          1.996333
 121         V                 0.472036          1.986814
 122         V                 0.475078          1.864827
 123         V                 0.476015          2.702676
 124         V                 0.489525          1.597737
 125         V                 0.494877          1.798364
 126         V                 0.496953          2.085242
 127         V                 0.498187          2.012009
 128         V                 0.501677          2.022457
 129         V                 0.508631          2.205744
 130         V                 0.524973          2.310323
 131         V                 0.526351          2.438592
 132         V                 0.537628          2.048247
 133         V                 0.543980          2.147659
 134         V                 0.546766          2.339834
 135         V                 0.560640          2.276442
 136         V                 0.569502          2.159979
 137         V                 0.584956          2.115773
 138         V                 0.603497          2.160024
 139         V                 0.603883          2.161452
 140         V                 0.604131          2.177215
 141         V                 0.639770          2.218223
 142         V                 0.649953          2.290394
 143         V                 0.649961          2.289238
 144         V                 0.652919          2.209974
 145         V                 0.691783          2.565815
 146         V                 0.691796          2.575595
 147         V                 0.700030          2.631246
 148         V                 0.713101          2.666544
 149         V                 0.720904          2.577589
 150         V                 0.722532          2.539477
 151         V                 0.725854          2.664777
 152         V                 0.734950          2.620117
 153         V                 0.736484          2.344325
 154         V                 0.738025          2.363913
 155         V                 0.743105          2.485532
 156         V                 0.751791          2.527330
 157         V                 0.751887          2.499372
 158         V                 0.769381          2.533941
 159         V                 0.769821          2.576969
 160         V                 0.785841          2.362078
 161         V                 0.787507          2.662294
 162         V                 0.791366          2.496395
 163         V                 0.791730          2.491556
 164         V                 0.792618          2.420071
 165         V                 0.796863          2.679776
 166         V                 0.807797          2.513409
 167         V                 0.810101          2.486116
 168         V                 0.822252          2.436406
 169         V                 0.823933          2.400578
 170         V                 0.839349          2.446173
 171         V                 0.846851          2.339372
 172         V                 0.864244          2.372681
 173         V                 0.874783          2.389848
 174         V                 0.904809          2.373987
 175         V                 0.907085          2.415122
 176         V                 0.929550          2.050962
 177         V                 0.935273          2.043635
 178         V                 0.947663          2.364909
 179         V                 0.960705          2.286596
 180         V                 0.963688          2.195470
 181         V                 0.968472          2.371259
 182         V                 0.989175          2.178778
 183         V                 1.057531          2.299808
 184         V                 1.098408          2.435022
 185         V                 1.100628          2.359995
 186         V                 1.127789          2.596170
 187         V                 1.154349          2.370056
 188         V                 1.154808          2.367640
 189         V                 1.171602          2.383521
 190         V                 1.176855          2.456813
 191         V                 1.178569          2.463930
 192         V                 1.179145          2.456538
 193         V                 1.197849          2.440634
 194         V                 1.205400          2.461893
 195         V                 1.212373          2.450452
 196         V                 1.213496          2.433469
 197         V                 1.218380          2.476345
 198         V                 1.224454          2.475779
 199         V                 1.241684          2.616683
 200         V                 1.243706          2.445044
 201         V                 1.254097          2.562456
 202         V                 1.268984          2.658997
 203         V                 1.271011          2.645669
 204         V                 1.280703          2.477488
 205         V                 1.319054          2.505956
 206         V                 1.335563          2.650863
 207         V                 1.358720          2.532915
 208         V                 1.396112          2.556080
 209         V                 1.399947          2.569641
 210         V                 1.404077          2.617961
 211         V                 1.425509          2.572040
 212         V                 1.431747          2.715040
 213         V                 1.436235          2.804354
 214         V                 1.548097          2.870099
 215         V                 1.549154          2.868222
 216         V                 1.604893          2.744711
 217         V                 1.604949          2.744853
 218         V                 1.701564          2.972842
 219         V                 1.704083          2.971667
 220         V                 1.707973          2.874739
 221         V                 1.716092          3.128187
 222         V                 1.716288          3.080141
 223         V                 1.717204          2.900499
 224         V                 1.725404          3.046720
 225         V                 1.737445          3.211158
 226         V                 1.749076          2.915675
 227         V                 1.753217          3.156739
 228         V                 1.762369          3.179281
 229         V                 1.786463          3.269509
 230         V                 1.791512          2.958264
 231         V                 1.794266          3.205063
 232         V                 1.817328          3.449070
 233         V                 1.823392          3.619293
 234         V                 1.827324          3.515827
 235         V                 1.838325          3.408709
 236         V                 1.842704          3.020776
 237         V                 1.858588          3.387506
 238         V                 1.864042          3.451339
 239         V                 1.866983          3.414337
 240         V                 1.896850          3.099687
 241         V                 1.921405          2.920144
 242         V                 1.922653          2.864153
 243         V                 1.924137          2.979207
 244         V                 1.924370          2.846768
 245         V                 1.925005          3.253693
 246         V                 1.935863          3.102460
 247         V                 1.955340          3.158591
 248         V                 1.955900          3.310840
 249         V                 1.965417          3.126919
 250         V                 1.966623          3.132182
 251         V                 1.981404          3.286707
 252         V                 1.990552          3.341924
 253         V                 1.992666          3.178066
 254         V                 2.014454          3.300541
 255         V                 2.020619          3.485225
 256         V                 2.024053          3.346789
 257         V                 2.032442          3.280470
 258         V                 2.033765          3.271454
 259         V                 2.040099          3.206864
 260         V                 2.064026          3.413947
 261         V                 2.071976          3.406713
 262         V                 2.094543          3.245007
 263         V                 2.116813          3.537118
 264         V                 2.129344          3.478708
 265         V                 2.131256          3.596758
 266         V                 2.138690          3.283687
 267         V                 2.175420          3.323578
 268         V                 2.210207          3.373727
 269         V                 2.211438          3.737067
 270         V                 2.228457          3.462258
 271         V                 2.233706          3.452256
 272         V                 2.248110          3.684884
 273         V                 2.252055          3.437212
 274         V                 2.254925          3.679480
 275         V                 2.302023          3.479680
 276         V                 2.314672          3.844574
 277         V                 2.316051          3.298469
 278         V                 2.333740          3.363642
 279         V                 2.349979          3.427877
 280         V                 2.365082          3.443242
 281         V                 2.365158          3.527602
 282         V                 2.396040          3.499482
 283         V                 2.408795          4.006703
 284         V                 2.412364          3.726232
 285         V                 2.421427          3.858134
 286         V                 2.426293          3.558005
 287         V                 2.427996          3.638741
 288         V                 2.440368          3.964791
 289         V                 2.456646          3.570382
 290         V                 2.457983          3.585403
 291         V                 2.462509          3.651020
 292         V                 2.492303          3.751028
 293         V                 2.500626          3.664793
 294         V                 2.509223          3.812468
 295         V                 2.513742          3.658247
 296         V                 2.517928          3.733810
 297         V                 2.523952          3.654742
 298         V                 2.556686          3.932181
 299         V                 2.564650          3.793872
 300         V                 2.566583          3.769120
 301         V                 2.575130          3.790711
 302         V                 2.593022          3.730930
 303         V                 2.597606          3.897909
 304         V                 2.605936          3.831914
 305         V                 2.606118          3.836236
 306         V                 2.614379          3.765475
 307         V                 2.642479          4.121311
 308         V                 2.650518          4.106854
 309         V                 2.673412          3.925900
 310         V                 2.699850          4.019346
 311         V                 2.700722          4.059609
 312         V                 2.717959          3.966633
 313         V                 2.725786          4.068280
 314         V                 2.734823          3.879348
 315         V                 2.734859          3.879522
 316         V                 2.763816          4.191151
 317         V                 2.777357          3.952056
 318         V                 2.777417          3.952596
 319         V                 2.788690          4.083586
 320         V                 2.789472          4.404054
 321         V                 2.826426          4.711680
 322         V                 2.834123          4.650075
 323         V                 2.850824          4.381294
 324         V                 2.862604          4.377302
 325         V                 2.902418          4.393037
 326         V                 2.915405          4.442347
 327         V                 2.972091          4.583450
 328         V                 2.972546          4.570009
 329         V                 3.001684          4.794917
 330         V                 3.001860          4.793775
 331         V                 3.072823          4.892463
 332         V                 3.073480          4.894884
 333         V                 3.117093          4.978293
 334         V                 3.117163          4.977844
 335         V                 3.259844          5.383228
 336         V                 3.267697          5.303271
 337         V                 3.284576          5.212679
 338         V                 3.304886          5.065683
 339         V                 3.304924          5.062837
 340         V                 3.306738          5.187565
 341         V                 3.309861          5.072215
 342         V                 3.309873          5.072444
 343         V                 3.332513          5.138147
 344         V                 3.337254          5.084706
 345         V                 3.341588          5.168872
 346         V                 3.382055          5.245525
 347         V                 3.383613          5.117156
 348         V                 3.440052          5.276681
 349         V                 3.458980          5.303427
 350         V                 3.503917          5.312129
 351         V                 3.536805          5.427358
 352         V                 3.576647          5.376440
 353         V                 3.584430          5.431041
 354         V                 3.933591         10.346606
 355         V                 3.940321         10.344447
 356         V                 4.030616         10.165409
 357         V                 4.035467         10.174917
 358         V                 4.047064         10.169774
 359         V                 4.069925         10.134916
 360         V                 4.108031         10.082621
 361         V                 4.154929         10.013883
 362         V                 4.233711          9.961105
 363         V                 4.315997          9.945132
 364         V                 4.359363         10.009656
 365         V                 4.360169          9.996755
 366         V                 4.379140         10.043049
 367         V                 4.433655         10.028338
 368         V                 4.508841          9.922953
 369         V                 4.594263          9.865283
 370         V                 4.660261          9.832677
 Total kinetic energy from orbitals= 6.878008063931D+02
 Leave Link  601 at Tue Jun  8 19:06:08 2021, MaxMem=    33554432 cpu:         1.4
 (Enter /opt/app/gaussian09/e01/g09/l9999.exe)
 1\1\GINC-NB-0114\SP\RB3LYP TD-FC\6-31G(d,p)\C15H23N2(1+)\ROOT\08-Jun-2
 021\0\\#p td(NStates=10) b3lyp/6-31g(d,p) nosymm pop=full\\opt\\1,1\C,
 0,3.6672306,-0.2836884,0.0005631\H,0,3.59127902,-1.37203061,0.00063022
 \C,0,2.47916695,0.43596468,0.00035192\H,0,2.52494129,1.52347937,0.0003
 4988\C,0,1.22366262,-0.17975335,0.00014476\H,0,1.20043852,-1.27037594,
 0.00020851\C,0,4.95583113,0.27069024,0.00058178\H,0,5.06001674,1.35093
 827,0.00025871\C,0,6.07964291,-0.541972,0.00042628\H,0,5.94130946,-1.6
 2057341,-0.0007961\N,0,7.35542877,-0.14267603,0.00179415\C,0,0.0000182
 6,0.48757534,-0.00013269\H,0,0.00002592,1.57613246,-0.0002265\C,0,-1.2
 2363716,-0.17976008,-0.00027431\H,0,-1.20040788,-1.27038304,-0.0001486
 6\C,0,-2.47914394,0.43594769,-0.00055672\H,0,-2.52492179,1.52346246,-0
 .00071389\C,0,-3.66721992,-0.28370991,-0.0006203\H,0,-3.59126767,-1.37
 205206,-0.00044754\C,0,-4.95581485,0.27067078,-0.00066447\H,0,-5.05998
 504,1.35092166,-0.00045856\N,0,-7.35541083,-0.14268732,-0.00143588\C,0
 ,-6.07965169,-0.54198871,-0.00032929\H,0,-5.94132031,-1.62059053,0.001
 02417\C,0,7.69880638,1.27895093,0.00341036\H,0,7.30744366,1.77305173,-
 0.8920959\H,0,7.28916027,1.77451113,0.88969779\H,0,8.78320767,1.383777
 42,0.01468312\C,0,8.4565556,-1.10315052,-0.00453886\H,0,9.08457787,-0.
 96972991,0.88240766\H,0,8.06051279,-2.11932224,-0.00382139\H,0,9.07647
 881,-0.96790328,-0.896983\C,0,-8.45661138,-1.103106,0.00447437\H,0,-8.
 06063011,-2.11929611,0.00415895\H,0,-9.07697248,-0.96761652,0.89656774
 \H,0,-9.08416146,-0.96979096,-0.88283053\C,0,-7.6988257,1.2789392,-0.0
 0320779\H,0,-7.30701445,1.77322035,0.89199325\H,0,-7.28965812,1.774328
 03,-0.88981331\H,0,-8.78323736,1.38372596,-0.01392131\\Version=ES64L-G
 09RevE.01\HF=-694.7368161\RMSD=9.147e-09\PG=C01 [X(C15H23N2)]\\@


 "MATHEMATICS IS THE ART OF GIVING THE SAME NAME
 TO DIFFERENT THINGS."
                    - H. POINCARE
 Job cpu time:       0 days  0 hours 26 minutes 46.5 seconds.
 File lengths (MBytes):  RWF=    365 Int=      0 D2E=      0 Chk=     87 Scr=      1
 Normal termination of Gaussian 09 at Tue Jun  8 19:06:26 2021.
