 Entering Gaussian System, Link 0=/opt/app/gaussian09/e01/g09/g09.exec
 Input=mini_4_pp_opt.gjf
 Output=mini_4_pp_opt.log
 Initial command:
 /opt/app/gaussian09/e01/g09/l1.exe "./Gau-1679.inp" -scrdir="./"
 Entering Link 1 = /opt/app/gaussian09/e01/g09/l1.exe PID=      1759.
  
 Copyright (c) 1988,1990,1992,1993,1995,1998,2003,2009,2015,
            Gaussian, Inc.  All Rights Reserved.
  
 This is part of the Gaussian(R) 09 program.  It is based on
 the Gaussian(R) 03 system (copyright 2003, Gaussian, Inc.),
 the Gaussian(R) 98 system (copyright 1998, Gaussian, Inc.),
 the Gaussian(R) 94 system (copyright 1995, Gaussian, Inc.),
 the Gaussian 92(TM) system (copyright 1992, Gaussian, Inc.),
 the Gaussian 90(TM) system (copyright 1990, Gaussian, Inc.),
 the Gaussian 88(TM) system (copyright 1988, Gaussian, Inc.),
 the Gaussian 86(TM) system (copyright 1986, Carnegie Mellon
 University), and the Gaussian 82(TM) system (copyright 1983,
 Carnegie Mellon University). Gaussian is a federally registered
 trademark of Gaussian, Inc.
  
 This software contains proprietary and confidential information,
 including trade secrets, belonging to Gaussian, Inc.
  
 This software is provided under written license and may be
 used, copied, transmitted, or stored only in accord with that
 written license.
  
 The following legend is applicable only to US Government
 contracts under FAR:
  
                    RESTRICTED RIGHTS LEGEND
  
 Use, reproduction and disclosure by the US Government is
 subject to restrictions as set forth in subparagraphs (a)
 and (c) of the Commercial Computer Software - Restricted
 Rights clause in FAR 52.227-19.
  
 Gaussian, Inc.
 340 Quinnipiac St., Bldg. 40, Wallingford CT 06492
  
  
 ---------------------------------------------------------------
 Warning -- This program may not be used in any manner that
 competes with the business of Gaussian, Inc. or will provide
 assistance to any competitor of Gaussian, Inc.  The licensee
 of this program is prohibited from giving any competitor of
 Gaussian, Inc. access to this program.  By using this program,
 the user acknowledges that Gaussian, Inc. is engaged in the
 business of creating and licensing software in the field of
 computational chemistry and represents and warrants to the
 licensee that it is not a competitor of Gaussian, Inc. and that
 it will not use this program in any manner prohibited above.
 ---------------------------------------------------------------
  

 Cite this work as:
 Gaussian 09, Revision E.01,
 M. J. Frisch, G. W. Trucks, H. B. Schlegel, G. E. Scuseria, 
 M. A. Robb, J. R. Cheeseman, G. Scalmani, V. Barone, B. Mennucci, 
 G. A. Petersson, H. Nakatsuji, M. Caricato, X. Li, H. P. Hratchian, 
 A. F. Izmaylov, J. Bloino, G. Zheng, J. L. Sonnenberg, M. Hada, 
 M. Ehara, K. Toyota, R. Fukuda, J. Hasegawa, M. Ishida, T. Nakajima, 
 Y. Honda, O. Kitao, H. Nakai, T. Vreven, J. A. Montgomery, Jr., 
 J. E. Peralta, F. Ogliaro, M. Bearpark, J. J. Heyd, E. Brothers, 
 K. N. Kudin, V. N. Staroverov, T. Keith, R. Kobayashi, J. Normand, 
 K. Raghavachari, A. Rendell, J. C. Burant, S. S. Iyengar, J. Tomasi, 
 M. Cossi, N. Rega, J. M. Millam, M. Klene, J. E. Knox, J. B. Cross, 
 V. Bakken, C. Adamo, J. Jaramillo, R. Gomperts, R. E. Stratmann, 
 O. Yazyev, A. J. Austin, R. Cammi, C. Pomelli, J. W. Ochterski, 
 R. L. Martin, K. Morokuma, V. G. Zakrzewski, G. A. Voth, 
 P. Salvador, J. J. Dannenberg, S. Dapprich, A. D. Daniels, 
 O. Farkas, J. B. Foresman, J. V. Ortiz, J. Cioslowski, 
 and D. J. Fox, Gaussian, Inc., Wallingford CT, 2013.
 
 ******************************************
 Gaussian 09:  ES64L-G09RevE.01 30-Nov-2015
                 6-Jun-2021 
 ******************************************
 %chk=mini_4_pp_opt.chk
 -----------------------------------------------------
 #p opt b3lyp/6-31g(d) geom=connectivity int=ultrafine
 -----------------------------------------------------
 1/14=-1,18=20,19=15,26=4,38=1,57=2/1,3;
 2/9=110,12=2,17=6,18=5,40=1/2;
 3/5=1,6=6,7=1,11=2,16=1,25=1,30=1,71=1,74=-5,75=-5/1,2,3;
 4//1;
 5/5=2,38=5/2;
 6/7=2,8=2,9=2,10=2,28=1/1;
 7//1,2,3,16;
 1/14=-1,18=20,19=15,26=4/3(2);
 2/9=110/2;
 99//99;
 2/9=110/2;
 3/5=1,6=6,7=1,11=2,16=1,25=1,30=1,71=1,74=-5,75=-5/1,2,3;
 4/5=5,16=3,69=1/1;
 5/5=2,38=5/2;
 7//1,2,3,16;
 1/14=-1,18=20,19=15,26=4/3(-5);
 2/9=110/2;
 6/7=2,8=2,9=2,10=2,19=2,28=1/1;
 99/9=1/99;
 Leave Link    1 at Sun Jun  6 12:21:13 2021, MaxMem=           0 cpu:         0.0
 (Enter /opt/app/gaussian09/e01/g09/l101.exe)
 -------------------
 Title Card Required
 -------------------
 Symbolic Z-matrix:
 Charge =  0 Multiplicity = 1
 C                    -1.34441  -1.64653   0. 
 H                    -2.41441  -1.64653   0. 
 C                    -0.66914  -0.47155   0. 
 H                     0.40086  -0.47155   0. 
 C                    -1.43649   0.86365   0. 
 H                    -2.50649   0.86365   0. 
 C                    -0.76122   2.03863   0. 
 H                     0.27646   2.0572   -0.26033 
 C                    -1.48222   3.34719   0.37339 
 H                    -2.5199    3.32862   0.63372 
 C                    -0.80695   4.52217   0.37339 
 H                     0.26305   4.52217   0.37339 
 C                    -0.57705  -2.98173   0. 
 H                     0.49295  -2.98173   0. 
 C                    -1.25233  -4.1567    0. 
 H                    -2.32231  -4.16306   0. 
 C                    -1.5743    5.85737   0.37339 
 H                    -2.17322   5.92454   1.25753 
 H                    -0.87757   6.66916   0.35204 
 H                    -2.20529   5.90611  -0.48938 
 C                    -0.47705  -5.48732   0. 
 H                    -1.16914  -6.30336  -0.00103 
 H                     0.1391   -5.54112  -0.87314 
 H                     0.13756  -5.54202   0.87417 
 
 NAtoms=     24 NQM=       24 NQMF=       0 NMMI=      0 NMMIF=      0
                NMic=       0 NMicF=      0.
                    Isotopes and Nuclear Properties:
 (Nuclear quadrupole moments (NQMom) in fm**2, nuclear magnetic moments (NMagM)
  in nuclear magnetons)

  Atom         1           2           3           4           5           6           7           8           9          10
 IAtWgt=          12           1          12           1          12           1          12           1          12           1
 AtmWgt=  12.0000000   1.0078250  12.0000000   1.0078250  12.0000000   1.0078250  12.0000000   1.0078250  12.0000000   1.0078250
 NucSpn=           0           1           0           1           0           1           0           1           0           1
 AtZEff=   0.0000000   0.0000000   0.0000000   0.0000000   0.0000000   0.0000000   0.0000000   0.0000000   0.0000000   0.0000000
 NQMom=    0.0000000   0.0000000   0.0000000   0.0000000   0.0000000   0.0000000   0.0000000   0.0000000   0.0000000   0.0000000
 NMagM=    0.0000000   2.7928460   0.0000000   2.7928460   0.0000000   2.7928460   0.0000000   2.7928460   0.0000000   2.7928460
 AtZNuc=   6.0000000   1.0000000   6.0000000   1.0000000   6.0000000   1.0000000   6.0000000   1.0000000   6.0000000   1.0000000

  Atom        11          12          13          14          15          16          17          18          19          20
 IAtWgt=          12           1          12           1          12           1          12           1           1           1
 AtmWgt=  12.0000000   1.0078250  12.0000000   1.0078250  12.0000000   1.0078250  12.0000000   1.0078250   1.0078250   1.0078250
 NucSpn=           0           1           0           1           0           1           0           1           1           1
 AtZEff=   0.0000000   0.0000000   0.0000000   0.0000000   0.0000000   0.0000000   0.0000000   0.0000000   0.0000000   0.0000000
 NQMom=    0.0000000   0.0000000   0.0000000   0.0000000   0.0000000   0.0000000   0.0000000   0.0000000   0.0000000   0.0000000
 NMagM=    0.0000000   2.7928460   0.0000000   2.7928460   0.0000000   2.7928460   0.0000000   2.7928460   2.7928460   2.7928460
 AtZNuc=   6.0000000   1.0000000   6.0000000   1.0000000   6.0000000   1.0000000   6.0000000   1.0000000   1.0000000   1.0000000

  Atom        21          22          23          24
 IAtWgt=          12           1           1           1
 AtmWgt=  12.0000000   1.0078250   1.0078250   1.0078250
 NucSpn=           0           1           1           1
 AtZEff=   0.0000000   0.0000000   0.0000000   0.0000000
 NQMom=    0.0000000   0.0000000   0.0000000   0.0000000
 NMagM=    0.0000000   2.7928460   2.7928460   2.7928460
 AtZNuc=   6.0000000   1.0000000   1.0000000   1.0000000
 Leave Link  101 at Sun Jun  6 12:21:14 2021, MaxMem=    33554432 cpu:         0.1
 (Enter /opt/app/gaussian09/e01/g09/l103.exe)

 GradGradGradGradGradGradGradGradGradGradGradGradGradGradGradGradGradGrad
 Berny optimization.
 Initialization pass.
                           ----------------------------
                           !    Initial Parameters    !
                           ! (Angstroms and Degrees)  !
 --------------------------                            --------------------------
 ! Name  Definition              Value          Derivative Info.                !
 --------------------------------------------------------------------------------
 ! R1    R(1,2)                  1.07           estimate D2E/DX2                !
 ! R2    R(1,3)                  1.3552         estimate D2E/DX2                !
 ! R3    R(1,13)                 1.54           estimate D2E/DX2                !
 ! R4    R(3,4)                  1.07           estimate D2E/DX2                !
 ! R5    R(3,5)                  1.54           estimate D2E/DX2                !
 ! R6    R(5,6)                  1.07           estimate D2E/DX2                !
 ! R7    R(5,7)                  1.3552         estimate D2E/DX2                !
 ! R8    R(7,8)                  1.07           estimate D2E/DX2                !
 ! R9    R(7,9)                  1.54           estimate D2E/DX2                !
 ! R10   R(9,10)                 1.07           estimate D2E/DX2                !
 ! R11   R(9,11)                 1.3552         estimate D2E/DX2                !
 ! R12   R(11,12)                1.07           estimate D2E/DX2                !
 ! R13   R(11,17)                1.54           estimate D2E/DX2                !
 ! R14   R(13,14)                1.07           estimate D2E/DX2                !
 ! R15   R(13,15)                1.3552         estimate D2E/DX2                !
 ! R16   R(15,16)                1.07           estimate D2E/DX2                !
 ! R17   R(15,21)                1.54           estimate D2E/DX2                !
 ! R18   R(17,18)                1.07           estimate D2E/DX2                !
 ! R19   R(17,19)                1.07           estimate D2E/DX2                !
 ! R20   R(17,20)                1.07           estimate D2E/DX2                !
 ! R21   R(21,22)                1.07           estimate D2E/DX2                !
 ! R22   R(21,23)                1.07           estimate D2E/DX2                !
 ! R23   R(21,24)                1.07           estimate D2E/DX2                !
 ! A1    A(2,1,3)              119.8865         estimate D2E/DX2                !
 ! A2    A(2,1,13)             119.8865         estimate D2E/DX2                !
 ! A3    A(3,1,13)             120.2269         estimate D2E/DX2                !
 ! A4    A(1,3,4)              119.8865         estimate D2E/DX2                !
 ! A5    A(1,3,5)              120.2269         estimate D2E/DX2                !
 ! A6    A(4,3,5)              119.8865         estimate D2E/DX2                !
 ! A7    A(3,5,6)              119.8865         estimate D2E/DX2                !
 ! A8    A(3,5,7)              120.2269         estimate D2E/DX2                !
 ! A9    A(6,5,7)              119.8865         estimate D2E/DX2                !
 ! A10   A(5,7,8)              119.8865         estimate D2E/DX2                !
 ! A11   A(5,7,9)              120.2269         estimate D2E/DX2                !
 ! A12   A(8,7,9)              119.8865         estimate D2E/DX2                !
 ! A13   A(7,9,10)             119.8865         estimate D2E/DX2                !
 ! A14   A(7,9,11)             120.2269         estimate D2E/DX2                !
 ! A15   A(10,9,11)            119.8865         estimate D2E/DX2                !
 ! A16   A(9,11,12)            119.8865         estimate D2E/DX2                !
 ! A17   A(9,11,17)            120.2269         estimate D2E/DX2                !
 ! A18   A(12,11,17)           119.8865         estimate D2E/DX2                !
 ! A19   A(1,13,14)            119.8865         estimate D2E/DX2                !
 ! A20   A(1,13,15)            120.2269         estimate D2E/DX2                !
 ! A21   A(14,13,15)           119.8865         estimate D2E/DX2                !
 ! A22   A(13,15,16)           120.2269         estimate D2E/DX2                !
 ! A23   A(13,15,21)           119.8865         estimate D2E/DX2                !
 ! A24   A(16,15,21)           119.8865         estimate D2E/DX2                !
 ! A25   A(11,17,18)           109.4712         estimate D2E/DX2                !
 ! A26   A(11,17,19)           109.4712         estimate D2E/DX2                !
 ! A27   A(11,17,20)           109.4712         estimate D2E/DX2                !
 ! A28   A(18,17,19)           109.4713         estimate D2E/DX2                !
 ! A29   A(18,17,20)           109.4712         estimate D2E/DX2                !
 ! A30   A(19,17,20)           109.4712         estimate D2E/DX2                !
 ! A31   A(15,21,22)           109.4712         estimate D2E/DX2                !
 ! A32   A(15,21,23)           109.4712         estimate D2E/DX2                !
 ! A33   A(15,21,24)           109.4712         estimate D2E/DX2                !
 ! A34   A(22,21,23)           109.4713         estimate D2E/DX2                !
 ! A35   A(22,21,24)           109.4712         estimate D2E/DX2                !
 ! A36   A(23,21,24)           109.4712         estimate D2E/DX2                !
 ! D1    D(2,1,3,4)            180.0            estimate D2E/DX2                !
 ! D2    D(2,1,3,5)              0.0            estimate D2E/DX2                !
 ! D3    D(13,1,3,4)             0.0            estimate D2E/DX2                !
 ! D4    D(13,1,3,5)           180.0            estimate D2E/DX2                !
 ! D5    D(2,1,13,14)          180.0            estimate D2E/DX2                !
 ! D6    D(2,1,13,15)            0.0            estimate D2E/DX2                !
 ! D7    D(3,1,13,14)            0.0            estimate D2E/DX2                !
 ! D8    D(3,1,13,15)          180.0            estimate D2E/DX2                !
 ! D9    D(1,3,5,6)              0.0            estimate D2E/DX2                !
 ! D10   D(1,3,5,7)            180.0            estimate D2E/DX2                !
 ! D11   D(4,3,5,6)            180.0            estimate D2E/DX2                !
 ! D12   D(4,3,5,7)              0.0            estimate D2E/DX2                !
 ! D13   D(3,5,7,8)             16.297          estimate D2E/DX2                !
 ! D14   D(3,5,7,9)           -163.703          estimate D2E/DX2                !
 ! D15   D(6,5,7,8)           -163.703          estimate D2E/DX2                !
 ! D16   D(6,5,7,9)             16.297          estimate D2E/DX2                !
 ! D17   D(5,7,9,10)             0.0            estimate D2E/DX2                !
 ! D18   D(5,7,9,11)           180.0            estimate D2E/DX2                !
 ! D19   D(8,7,9,10)           180.0            estimate D2E/DX2                !
 ! D20   D(8,7,9,11)             0.0            estimate D2E/DX2                !
 ! D21   D(7,9,11,12)          -16.297          estimate D2E/DX2                !
 ! D22   D(7,9,11,17)          163.703          estimate D2E/DX2                !
 ! D23   D(10,9,11,12)         163.703          estimate D2E/DX2                !
 ! D24   D(10,9,11,17)         -16.297          estimate D2E/DX2                !
 ! D25   D(9,11,17,18)          61.2131         estimate D2E/DX2                !
 ! D26   D(9,11,17,19)        -178.7869         estimate D2E/DX2                !
 ! D27   D(9,11,17,20)         -58.7869         estimate D2E/DX2                !
 ! D28   D(12,11,17,18)       -118.7869         estimate D2E/DX2                !
 ! D29   D(12,11,17,19)          1.2131         estimate D2E/DX2                !
 ! D30   D(12,11,17,20)        121.2131         estimate D2E/DX2                !
 ! D31   D(1,13,15,16)           0.0            estimate D2E/DX2                !
 ! D32   D(1,13,15,21)         180.0            estimate D2E/DX2                !
 ! D33   D(14,13,15,16)        180.0            estimate D2E/DX2                !
 ! D34   D(14,13,15,21)          0.0            estimate D2E/DX2                !
 ! D35   D(13,15,21,22)       -179.9415         estimate D2E/DX2                !
 ! D36   D(13,15,21,23)        -59.9415         estimate D2E/DX2                !
 ! D37   D(13,15,21,24)         60.0585         estimate D2E/DX2                !
 ! D38   D(16,15,21,22)          0.0585         estimate D2E/DX2                !
 ! D39   D(16,15,21,23)        120.0585         estimate D2E/DX2                !
 ! D40   D(16,15,21,24)       -119.9415         estimate D2E/DX2                !
 --------------------------------------------------------------------------------
 Trust Radius=3.00D-01 FncErr=1.00D-07 GrdErr=1.00D-06
 Number of steps in this run=    109 maximum allowed number of steps=    144.
 GradGradGradGradGradGradGradGradGradGradGradGradGradGradGradGradGradGrad

 Leave Link  103 at Sun Jun  6 12:21:15 2021, MaxMem=    33554432 cpu:         0.0
 (Enter /opt/app/gaussian09/e01/g09/l202.exe)
                          Input orientation:                          
 ---------------------------------------------------------------------
 Center     Atomic      Atomic             Coordinates (Angstroms)
 Number     Number       Type             X           Y           Z
 ---------------------------------------------------------------------
      1          6           0       -1.344411   -1.646526    0.000000
      2          1           0       -2.414411   -1.646526    0.000000
      3          6           0       -0.669136   -0.471548    0.000000
      4          1           0        0.400864   -0.471548    0.000000
      5          6           0       -1.436494    0.863653    0.000000
      6          1           0       -2.506494    0.863653    0.000000
      7          6           0       -0.761219    2.038630    0.000000
      8          1           0        0.276462    2.057204   -0.260330
      9          6           0       -1.482222    3.347191    0.373394
     10          1           0       -2.519904    3.328618    0.633724
     11          6           0       -0.806948    4.522169    0.373394
     12          1           0        0.263052    4.522169    0.373394
     13          6           0       -0.577054   -2.981727    0.000000
     14          1           0        0.492946   -2.981727    0.000000
     15          6           0       -1.252328   -4.156704    0.000000
     16          1           0       -2.322309   -4.163062    0.000000
     17          6           0       -1.574305    5.857370    0.373394
     18          1           0       -2.173216    5.924542    1.257528
     19          1           0       -0.877573    6.669164    0.352036
     20          1           0       -2.205289    5.906110   -0.489383
     21          6           0       -0.477051   -5.487323    0.000000
     22          1           0       -1.169142   -6.303356   -0.001030
     23          1           0        0.139098   -5.541118   -0.873136
     24          1           0        0.137556   -5.542016    0.874166
 ---------------------------------------------------------------------
                    Distance matrix (angstroms):
                    1          2          3          4          5
     1  C    0.000000
     2  H    1.070000   0.000000
     3  C    1.355200   2.103938   0.000000
     4  H    2.103938   3.050630   1.070000   0.000000
     5  C    2.511867   2.693941   1.540000   2.271265   0.000000
     6  H    2.766123   2.511867   2.271265   3.199295   1.070000
     7  C    3.731017   4.038987   2.511867   2.766123   1.355200
     8  H    4.051249   4.585432   2.712290   2.545159   2.103938
     9  C    5.009553   5.093683   3.922156   4.274132   2.511867
    10  H    5.151256   5.016452   4.274132   4.834641   2.766123
    11  C    6.203312   6.385621   5.009553   5.151256   3.731017
    12  H    6.385621   6.735059   5.093683   5.009553   4.051249
    13  C    1.540000   2.271265   2.511867   2.693941   3.940252
    14  H    2.271265   3.199295   2.766123   2.511867   4.302289
    15  C    2.511867   2.766123   3.731017   4.038987   5.023734
    16  H    2.699859   2.518221   4.044781   4.587258   5.104168
    17  C    7.516697   7.560004   6.404214   6.640476   5.009553
    18  H    7.719414   7.678581   6.689813   7.008369   5.266567
    19  H    8.336220   8.463834   7.152422   7.262789   5.842968
    20  H    7.617277   7.571362   6.578281   6.906956   5.124150
    21  C    3.937517   4.301754   5.019452   5.092026   6.423039
    22  H    4.660127   4.820452   5.853203   6.039445   7.171994
    23  H    4.258053   4.738209   5.207316   5.150866   6.653266
    24  H    4.258549   4.738307   5.208125   5.152004   6.653901
                    6          7          8          9         10
     6  H    0.000000
     7  C    2.103938   0.000000
     8  H    3.039273   1.070000   0.000000
     9  C    2.712290   1.540000   2.271265   0.000000
    10  H    2.545159   2.271265   3.199295   1.070000   0.000000
    11  C    4.051249   2.511867   2.766123   1.355200   2.103938
    12  H    4.603753   2.712290   2.545159   2.103938   3.039273
    13  C    4.302289   5.023734   5.117332   6.404214   6.633003
    14  H    4.876842   5.174642   5.050294   6.640476   7.021348
    15  C    5.174642   6.214770   6.404501   7.516697   7.618294
    16  H    5.030088   6.395153   6.746339   7.566312   7.521031
    17  C    5.093683   3.922156   4.274132   2.511867   2.712290
    18  H    5.225423   4.321506   4.822978   2.811032   2.692238
    19  H    6.039972   4.645353   4.793429   3.376619   3.733075
    20  H    5.075095   4.157190   4.585371   2.795581   2.829101
    21  C    6.667348   7.531317   7.586531   8.899350   9.071696
    22  H    7.290715   8.351954   8.488579   9.662881   9.746916
    23  H    6.984455   7.682807   7.624231   9.120557   9.381531
    24  H    6.984824   7.683630   7.684694   9.049446   9.263264
                   11         12         13         14         15
    11  C    0.000000
    12  H    1.070000   0.000000
    13  C    7.516697   7.560004   0.000000
    14  H    7.624802   7.516697   1.070000   0.000000
    15  C    8.698312   8.818086   1.355200   2.103938   0.000000
    16  H    8.824340   9.069550   2.107479   3.053066   1.070000
    17  C    1.540000   2.271265   8.903009   9.085295  10.026205
    18  H    2.148263   2.946820   9.135137   9.381440  10.201026
    19  H    2.148263   2.431269   9.661984   9.754074  10.838072
    20  H    2.148263   2.958443   9.048994   9.301269  10.119677
    21  C   10.021885  10.043759   2.507591   2.686802   1.540000
    22  H   10.838051  10.926269   3.373987   3.714264   2.148263
    23  H   10.184232  10.140953   2.797449   2.727280   2.148263
    24  H   10.120805  10.077418   2.798199   2.728653   2.148263
                   16         17         18         19         20
    16  H    0.000000
    17  C   10.055247   0.000000
    18  H   10.166777   1.070000   0.000000
    19  H   10.933815   1.070000   1.747303   0.000000
    20  H   10.081736   1.070000   1.747303   1.747303   0.000000
    21  C    2.271265  11.403747  11.605559  12.168177  11.534150
    22  H    2.431183  12.173233  12.333434  12.980598  12.263080
    23  H    2.952953  11.593753  11.888981  12.313637  11.691126
    24  H    2.952392  11.538079  11.703358  12.264421  11.764684
                   21         22         23         24
    21  C    0.000000
    22  H    1.070000   0.000000
    23  H    1.070000   1.747303   0.000000
    24  H    1.070000   1.747303   1.747303   0.000000
 Stoichiometry    C10H14
 Framework group  C1[X(C10H14)]
 Deg. of freedom    66
 Full point group                 C1      NOp   1
 Largest Abelian subgroup         C1      NOp   1
 Largest concise Abelian subgroup C1      NOp   1
                         Standard orientation:                         
 ---------------------------------------------------------------------
 Center     Atomic      Atomic             Coordinates (Angstroms)
 Number     Number       Type             X           Y           Z
 ---------------------------------------------------------------------
      1          6           0       -1.817112    0.409857   -0.066348
      2          1           0       -1.755440    1.476963   -0.115146
      3          6           0       -0.683824   -0.333197   -0.076228
      4          1           0       -0.745496   -1.400303   -0.027429
      5          6           0        0.692459    0.352986   -0.157448
      6          1           0        0.754131    1.420092   -0.206246
      7          6           0        1.825746   -0.390068   -0.167328
      8          1           0        1.774775   -1.437369   -0.380549
      9          6           0        3.186680    0.267709    0.127270
     10          1           0        3.237651    1.315009    0.340491
     11          6           0        4.319967   -0.475346    0.117390
     12          1           0        4.258295   -1.542452    0.166189
     13          6           0       -3.193395   -0.276326    0.014872
     14          1           0       -3.255067   -1.343432    0.063670
     15          6           0       -4.326682    0.466728    0.024752
     16          1           0       -4.271353    1.534192   -0.023826
     17          6           0        5.696250    0.210838    0.036171
     18          1           0        5.830697    0.842613    0.889215
     19          1           0        6.465178   -0.533030    0.018520
     20          1           0        5.749124    0.799694   -0.855655
     21          6           0       -5.698850   -0.227625    0.106174
     22          1           0       -6.473107    0.510892    0.101833
     23          1           0       -5.820535   -0.876905   -0.735567
     24          1           0       -5.756296   -0.799301    1.008829
 ---------------------------------------------------------------------
 Rotational constants (GHZ):     12.7598756      0.2728179      0.2684532
 Leave Link  202 at Sun Jun  6 12:21:16 2021, MaxMem=    33554432 cpu:         0.0
 (Enter /opt/app/gaussian09/e01/g09/l301.exe)
 Standard basis: 6-31G(d) (6D, 7F)
 Ernie: Thresh=  0.10000D-02 Tol=  0.10000D-05 Strict=F.
 There are   178 symmetry adapted cartesian basis functions of A   symmetry.
 There are   178 symmetry adapted basis functions of A   symmetry.
   178 basis functions,   336 primitive gaussians,   178 cartesian basis functions
    37 alpha electrons       37 beta electrons
       nuclear repulsion energy       423.1936453780 Hartrees.
 IExCor=  402 DFT=T Ex+Corr=B3LYP ExCW=0 ScaHFX=  0.200000
 ScaDFX=  0.800000  0.720000  1.000000  0.810000 ScalE2=  1.000000  1.000000
 IRadAn=      5 IRanWt=     -1 IRanGd=            0 ICorTp=0 IEmpDi=  4
 NAtoms=   24 NActive=   24 NUniq=   24 SFac= 1.00D+00 NAtFMM=   60 NAOKFM=F Big=F
 Integral buffers will be    131072 words long.
 Raffenetti 2 integral format.
 Two-electron integral symmetry is turned on.
 Leave Link  301 at Sun Jun  6 12:21:17 2021, MaxMem=    33554432 cpu:         0.1
 (Enter /opt/app/gaussian09/e01/g09/l302.exe)
 NPDir=0 NMtPBC=     1 NCelOv=     1 NCel=       1 NClECP=     1 NCelD=      1
         NCelK=      1 NCelE2=     1 NClLst=     1 CellRange=     0.0.
 One-electron integrals computed using PRISM.
 NBasis=   178 RedAO= T EigKep=  2.37D-03  NBF=   178
 NBsUse=   178 1.00D-06 EigRej= -1.00D+00 NBFU=   178
 Precomputing XC quadrature grid using
 IXCGrd= 4 IRadAn=           5 IRanWt=          -1 IRanGd=           0 AccXCQ= 0.00D+00.
 Generated NRdTot=       0 NPtTot=           0 NUsed=           0 NTot=          32
 NSgBfM=   176   176   176   176   176 MxSgAt=    24 MxSgA2=    24.
 Leave Link  302 at Sun Jun  6 12:21:20 2021, MaxMem=    33554432 cpu:         1.0
 (Enter /opt/app/gaussian09/e01/g09/l303.exe)
 DipDrv:  MaxL=1.
 Leave Link  303 at Sun Jun  6 12:21:20 2021, MaxMem=    33554432 cpu:         0.0
 (Enter /opt/app/gaussian09/e01/g09/l401.exe)
 ExpMin= 1.61D-01 ExpMax= 3.05D+03 ExpMxC= 4.57D+02 IAcc=3 IRadAn=         5 AccDes= 0.00D+00
 Harris functional with IExCor=  402 and IRadAn=       5 diagonalized for initial guess.
 HarFok:  IExCor=  402 AccDes= 0.00D+00 IRadAn=         5 IDoV= 1 UseB2=F ITyADJ=14
 ICtDFT=  3500011 ScaDFX=  1.000000  1.000000  1.000000  1.000000
 FoFCou: FMM=F IPFlag=           0 FMFlag=      100000 FMFlg1=           0
         NFxFlg=           0 DoJE=T BraDBF=F KetDBF=T FulRan=T
         wScrn=  0.000000 ICntrl=     500 IOpCl=  0 I1Cent=   200000004 NGrid=           0
         NMat0=    1 NMatS0=      1 NMatT0=    0 NMatD0=    1 NMtDS0=    0 NMtDT0=    0
 Petite list used in FoFCou.
 Harris En= -389.498609902570    
 JPrj=0 DoOrth=F DoCkMO=F.
 Leave Link  401 at Sun Jun  6 12:21:32 2021, MaxMem=    33554432 cpu:         9.9
 (Enter /opt/app/gaussian09/e01/g09/l502.exe)
 Closed shell SCF:
 Using DIIS extrapolation, IDIIS=  1040.
 Integral symmetry usage will be decided dynamically.
 IVT=      116032 IEndB=      116032 NGot=    33554432 MDV=    33486903
 LenX=    33486903 LenY=    33454778
 Requested convergence on RMS density matrix=1.00D-08 within 128 cycles.
 Requested convergence on MAX density matrix=1.00D-06.
 Requested convergence on             energy=1.00D-06.
 No special actions if energy rises.
 Fock matrices will be formed incrementally for  20 cycles.
 Integral accuracy reduced to 1.0D-05 until final iterations.

 Cycle   1  Pass 0  IDiag  1:
 FoFJK:  IHMeth= 1 ICntrl=       0 DoSepK=F KAlg= 0 I1Cent=   0 FoldK=F
 IRaf= 730000000 NMat=   1 IRICut=       1 DoRegI=T DoRafI=F ISym2E= 0.
 FoFCou: FMM=F IPFlag=           0 FMFlag=      100000 FMFlg1=           0
         NFxFlg=           0 DoJE=F BraDBF=F KetDBF=F FulRan=T
         wScrn=  0.000000 ICntrl=       0 IOpCl=  0 I1Cent=           0 NGrid=           0
         NMat0=    1 NMatS0=      1 NMatT0=    0 NMatD0=    1 NMtDS0=    0 NMtDT0=    0
 Symmetry not used in FoFCou.
 E= -389.097905275832    
 DIIS: error= 3.94D-02 at cycle   1 NSaved=   1.
 NSaved= 1 IEnMin= 1 EnMin= -389.097905275832     IErMin= 1 ErrMin= 3.94D-02
 ErrMax= 3.94D-02  0.00D+00 EMaxC= 1.00D-01 BMatC= 2.69D-01 BMatP= 2.69D-01
 IDIUse=3 WtCom= 6.06D-01 WtEn= 3.94D-01
 Coeff-Com:  0.100D+01
 Coeff-En:   0.100D+01
 Coeff:      0.100D+01
 Gap=     0.145 Goal=   None    Shift=    0.000
 GapD=    0.145 DampG=1.000 DampE=0.500 DampFc=0.5000 IDamp=-1.
 Damping current iteration by 5.00D-01
 RMSDP=6.23D-03 MaxDP=1.36D-01              OVMax= 1.60D-01

 Cycle   2  Pass 0  IDiag  1:
 RMSU=  3.04D-03    CP:  9.71D-01
 E= -389.251925948865     Delta-E=       -0.154020673033 Rises=F Damp=T
 DIIS: error= 6.56D-03 at cycle   2 NSaved=   2.
 NSaved= 2 IEnMin= 2 EnMin= -389.251925948865     IErMin= 2 ErrMin= 6.56D-03
 ErrMax= 6.56D-03  0.00D+00 EMaxC= 1.00D-01 BMatC= 1.00D-02 BMatP= 2.69D-01
 IDIUse=3 WtCom= 9.34D-01 WtEn= 6.56D-02
 Coeff-Com: -0.315D-01 0.103D+01
 Coeff-En:   0.000D+00 0.100D+01
 Coeff:     -0.294D-01 0.103D+01
 Gap=     0.148 Goal=   None    Shift=    0.000
 RMSDP=9.44D-04 MaxDP=1.55D-02 DE=-1.54D-01 OVMax= 8.52D-02

 Cycle   3  Pass 0  IDiag  1:
 RMSU=  9.35D-04    CP:  9.67D-01  9.75D-01
 E= -389.402460222133     Delta-E=       -0.150534273268 Rises=F Damp=F
 DIIS: error= 2.50D-03 at cycle   3 NSaved=   3.
 NSaved= 3 IEnMin= 3 EnMin= -389.402460222133     IErMin= 3 ErrMin= 2.50D-03
 ErrMax= 2.50D-03  0.00D+00 EMaxC= 1.00D-01 BMatC= 1.62D-03 BMatP= 1.00D-02
 IDIUse=3 WtCom= 9.75D-01 WtEn= 2.50D-02
 Coeff-Com: -0.290D-01 0.242D+00 0.787D+00
 Coeff-En:   0.000D+00 0.000D+00 0.100D+01
 Coeff:     -0.283D-01 0.236D+00 0.792D+00
 Gap=     0.148 Goal=   None    Shift=    0.000
 RMSDP=4.35D-04 MaxDP=9.04D-03 DE=-1.51D-01 OVMax= 2.93D-02

 Cycle   4  Pass 0  IDiag  1:
 RMSU=  4.05D-04    CP:  9.66D-01  9.81D-01  8.31D-01
 E= -389.402558787694     Delta-E=       -0.000098565561 Rises=F Damp=F
 DIIS: error= 2.90D-03 at cycle   4 NSaved=   4.
 NSaved= 4 IEnMin= 4 EnMin= -389.402558787694     IErMin= 3 ErrMin= 2.50D-03
 ErrMax= 2.90D-03  0.00D+00 EMaxC= 1.00D-01 BMatC= 1.36D-03 BMatP= 1.62D-03
 IDIUse=3 WtCom= 9.71D-01 WtEn= 2.90D-02
 Coeff-Com: -0.136D-01 0.672D-01 0.492D+00 0.454D+00
 Coeff-En:   0.000D+00 0.000D+00 0.487D+00 0.513D+00
 Coeff:     -0.132D-01 0.652D-01 0.492D+00 0.456D+00
 Gap=     0.148 Goal=   None    Shift=    0.000
 RMSDP=2.75D-04 MaxDP=7.79D-03 DE=-9.86D-05 OVMax= 2.18D-02

 Cycle   5  Pass 0  IDiag  1:
 RMSU=  1.01D-04    CP:  9.66D-01  9.89D-01  8.95D-01  3.89D-01
 E= -389.404048676682     Delta-E=       -0.001489888988 Rises=F Damp=F
 DIIS: error= 7.02D-04 at cycle   5 NSaved=   5.
 NSaved= 5 IEnMin= 5 EnMin= -389.404048676682     IErMin= 5 ErrMin= 7.02D-04
 ErrMax= 7.02D-04  0.00D+00 EMaxC= 1.00D-01 BMatC= 1.22D-04 BMatP= 1.36D-03
 IDIUse=3 WtCom= 9.93D-01 WtEn= 7.02D-03
 Coeff-Com: -0.517D-02 0.177D-01 0.229D+00 0.285D+00 0.473D+00
 Coeff-En:   0.000D+00 0.000D+00 0.000D+00 0.266D-01 0.973D+00
 Coeff:     -0.513D-02 0.175D-01 0.227D+00 0.283D+00 0.477D+00
 Gap=     0.148 Goal=   None    Shift=    0.000
 RMSDP=6.35D-05 MaxDP=2.42D-03 DE=-1.49D-03 OVMax= 4.85D-03

 Cycle   6  Pass 0  IDiag  1:
 RMSU=  2.95D-05    CP:  9.66D-01  9.90D-01  8.92D-01  4.62D-01  5.29D-01
 E= -389.404177440061     Delta-E=       -0.000128763379 Rises=F Damp=F
 DIIS: error= 9.73D-05 at cycle   6 NSaved=   6.
 NSaved= 6 IEnMin= 6 EnMin= -389.404177440061     IErMin= 6 ErrMin= 9.73D-05
 ErrMax= 9.73D-05  0.00D+00 EMaxC= 1.00D-01 BMatC= 3.89D-06 BMatP= 1.22D-04
 IDIUse=1 WtCom= 1.00D+00 WtEn= 0.00D+00
 Coeff-Com: -0.948D-03 0.133D-02 0.548D-01 0.879D-01 0.215D+00 0.642D+00
 Coeff:     -0.948D-03 0.133D-02 0.548D-01 0.879D-01 0.215D+00 0.642D+00
 Gap=     0.148 Goal=   None    Shift=    0.000
 RMSDP=1.15D-05 MaxDP=3.34D-04 DE=-1.29D-04 OVMax= 4.34D-04

 Cycle   7  Pass 0  IDiag  1:
 RMSU=  5.06D-06    CP:  9.66D-01  9.89D-01  8.94D-01  4.71D-01  5.66D-01
                    CP:  7.20D-01
 E= -389.404181212598     Delta-E=       -0.000003772537 Rises=F Damp=F
 DIIS: error= 2.71D-05 at cycle   7 NSaved=   7.
 NSaved= 7 IEnMin= 7 EnMin= -389.404181212598     IErMin= 7 ErrMin= 2.71D-05
 ErrMax= 2.71D-05  0.00D+00 EMaxC= 1.00D-01 BMatC= 1.60D-07 BMatP= 3.89D-06
 IDIUse=1 WtCom= 1.00D+00 WtEn= 0.00D+00
 Coeff-Com: -0.335D-03 0.212D-03 0.212D-01 0.357D-01 0.928D-01 0.306D+00
 Coeff-Com:  0.544D+00
 Coeff:     -0.335D-03 0.212D-03 0.212D-01 0.357D-01 0.928D-01 0.306D+00
 Coeff:      0.544D+00
 Gap=     0.148 Goal=   None    Shift=    0.000
 RMSDP=2.75D-06 MaxDP=1.10D-04 DE=-3.77D-06 OVMax= 2.09D-04

 Initial convergence to 1.0D-05 achieved.  Increase integral accuracy.
 Cycle   8  Pass 1  IDiag  1:
 E= -389.404171085642     Delta-E=        0.000010126957 Rises=F Damp=F
 DIIS: error= 2.14D-05 at cycle   1 NSaved=   1.
 NSaved= 1 IEnMin= 1 EnMin= -389.404171085642     IErMin= 1 ErrMin= 2.14D-05
 ErrMax= 2.14D-05  0.00D+00 EMaxC= 1.00D-01 BMatC= 6.53D-08 BMatP= 6.53D-08
 IDIUse=1 WtCom= 1.00D+00 WtEn= 0.00D+00
 Coeff-Com:  0.100D+01
 Coeff:      0.100D+01
 Gap=     0.148 Goal=   None    Shift=    0.000
 RMSDP=2.75D-06 MaxDP=1.10D-04 DE= 1.01D-05 OVMax= 2.31D-04

 Cycle   9  Pass 1  IDiag  1:
 RMSU=  5.27D-06    CP:  1.00D+00
 E= -389.404171006371     Delta-E=        0.000000079270 Rises=F Damp=F
 DIIS: error= 2.21D-05 at cycle   2 NSaved=   2.
 NSaved= 2 IEnMin= 1 EnMin= -389.404171085642     IErMin= 1 ErrMin= 2.14D-05
 ErrMax= 2.21D-05  0.00D+00 EMaxC= 1.00D-01 BMatC= 1.24D-07 BMatP= 6.53D-08
 IDIUse=1 WtCom= 1.00D+00 WtEn= 0.00D+00
 Coeff-Com:  0.593D+00 0.407D+00
 Coeff:      0.593D+00 0.407D+00
 Gap=     0.148 Goal=   None    Shift=    0.000
 RMSDP=2.20D-06 MaxDP=8.92D-05 DE= 7.93D-08 OVMax= 1.91D-04

 Cycle  10  Pass 1  IDiag  1:
 RMSU=  1.89D-06    CP:  1.00D+00  7.88D-01
 E= -389.404171130641     Delta-E=       -0.000000124270 Rises=F Damp=F
 DIIS: error= 5.00D-06 at cycle   3 NSaved=   3.
 NSaved= 3 IEnMin= 3 EnMin= -389.404171130641     IErMin= 3 ErrMin= 5.00D-06
 ErrMax= 5.00D-06  0.00D+00 EMaxC= 1.00D-01 BMatC= 5.61D-09 BMatP= 6.53D-08
 IDIUse=1 WtCom= 1.00D+00 WtEn= 0.00D+00
 Coeff-Com:  0.290D-01 0.178D+00 0.793D+00
 Coeff:      0.290D-01 0.178D+00 0.793D+00
 Gap=     0.148 Goal=   None    Shift=    0.000
 RMSDP=4.95D-07 MaxDP=1.79D-05 DE=-1.24D-07 OVMax= 4.70D-05

 Cycle  11  Pass 1  IDiag  1:
 RMSU=  2.49D-07    CP:  1.00D+00  8.34D-01  8.13D-01
 E= -389.404171135884     Delta-E=       -0.000000005243 Rises=F Damp=F
 DIIS: error= 1.48D-06 at cycle   4 NSaved=   4.
 NSaved= 4 IEnMin= 4 EnMin= -389.404171135884     IErMin= 4 ErrMin= 1.48D-06
 ErrMax= 1.48D-06  0.00D+00 EMaxC= 1.00D-01 BMatC= 7.51D-10 BMatP= 5.61D-09
 IDIUse=1 WtCom= 1.00D+00 WtEn= 0.00D+00
 Coeff-Com:  0.391D-04 0.956D-01 0.482D+00 0.422D+00
 Coeff:      0.391D-04 0.956D-01 0.482D+00 0.422D+00
 Gap=     0.148 Goal=   None    Shift=    0.000
 RMSDP=1.60D-07 MaxDP=7.21D-06 DE=-5.24D-09 OVMax= 1.52D-05

 Cycle  12  Pass 1  IDiag  1:
 RMSU=  6.44D-08    CP:  1.00D+00  8.32D-01  8.35D-01  4.39D-01
 E= -389.404171136649     Delta-E=       -0.000000000765 Rises=F Damp=F
 DIIS: error= 2.59D-07 at cycle   5 NSaved=   5.
 NSaved= 5 IEnMin= 5 EnMin= -389.404171136649     IErMin= 5 ErrMin= 2.59D-07
 ErrMax= 2.59D-07  0.00D+00 EMaxC= 1.00D-01 BMatC= 2.86D-11 BMatP= 7.51D-10
 IDIUse=1 WtCom= 1.00D+00 WtEn= 0.00D+00
 Coeff-Com: -0.111D-02 0.502D-01 0.257D+00 0.255D+00 0.438D+00
 Coeff:     -0.111D-02 0.502D-01 0.257D+00 0.255D+00 0.438D+00
 Gap=     0.148 Goal=   None    Shift=    0.000
 RMSDP=3.44D-08 MaxDP=1.14D-06 DE=-7.65D-10 OVMax= 2.62D-06

 Cycle  13  Pass 1  IDiag  1:
 RMSU=  1.82D-08    CP:  1.00D+00  8.32D-01  8.34D-01  4.69D-01  5.66D-01
 E= -389.404171136697     Delta-E=       -0.000000000049 Rises=F Damp=F
 DIIS: error= 4.49D-08 at cycle   6 NSaved=   6.
 NSaved= 6 IEnMin= 6 EnMin= -389.404171136697     IErMin= 6 ErrMin= 4.49D-08
 ErrMax= 4.49D-08  0.00D+00 EMaxC= 1.00D-01 BMatC= 9.83D-13 BMatP= 2.86D-11
 IDIUse=1 WtCom= 1.00D+00 WtEn= 0.00D+00
 Coeff-Com: -0.539D-03 0.139D-01 0.721D-01 0.769D-01 0.200D+00 0.638D+00
 Coeff:     -0.539D-03 0.139D-01 0.721D-01 0.769D-01 0.200D+00 0.638D+00
 Gap=     0.148 Goal=   None    Shift=    0.000
 RMSDP=6.16D-09 MaxDP=1.94D-07 DE=-4.85D-11 OVMax= 4.43D-07

 SCF Done:  E(RB3LYP) =  -389.404171137     A.U. after   13 cycles
            NFock= 13  Conv=0.62D-08     -V/T= 2.0105
 KE= 3.853637454883D+02 PE=-1.746610217153D+03 EE= 5.486486551501D+02
 Leave Link  502 at Sun Jun  6 12:23:30 2021, MaxMem=    33554432 cpu:       117.9
 (Enter /opt/app/gaussian09/e01/g09/l601.exe)
 Copying SCF densities to generalized density rwf, IOpCl= 0 IROHF=0.

 **********************************************************************

            Population analysis using the SCF density.

 **********************************************************************

 Orbital symmetries:
       Occupied  (A) (A) (A) (A) (A) (A) (A) (A) (A) (A) (A) (A)
                 (A) (A) (A) (A) (A) (A) (A) (A) (A) (A) (A) (A)
                 (A) (A) (A) (A) (A) (A) (A) (A) (A) (A) (A) (A)
                 (A)
       Virtual   (A) (A) (A) (A) (A) (A) (A) (A) (A) (A) (A) (A)
                 (A) (A) (A) (A) (A) (A) (A) (A) (A) (A) (A) (A)
                 (A) (A) (A) (A) (A) (A) (A) (A) (A) (A) (A) (A)
                 (A) (A) (A) (A) (A) (A) (A) (A) (A) (A) (A) (A)
                 (A) (A) (A) (A) (A) (A) (A) (A) (A) (A) (A) (A)
                 (A) (A) (A) (A) (A) (A) (A) (A) (A) (A) (A) (A)
                 (A) (A) (A) (A) (A) (A) (A) (A) (A) (A) (A) (A)
                 (A) (A) (A) (A) (A) (A) (A) (A) (A) (A) (A) (A)
                 (A) (A) (A) (A) (A) (A) (A) (A) (A) (A) (A) (A)
                 (A) (A) (A) (A) (A) (A) (A) (A) (A) (A) (A) (A)
                 (A) (A) (A) (A) (A) (A) (A) (A) (A) (A) (A) (A)
                 (A) (A) (A) (A) (A) (A) (A) (A) (A)
 The electronic state is 1-A.
 Alpha  occ. eigenvalues --  -10.18815 -10.18795 -10.18735 -10.18715 -10.18554
 Alpha  occ. eigenvalues --  -10.18525 -10.18451 -10.18430 -10.17346 -10.17328
 Alpha  occ. eigenvalues --   -0.80449  -0.79051  -0.76744  -0.73339  -0.68498
 Alpha  occ. eigenvalues --   -0.66039  -0.57749  -0.56073  -0.54917  -0.54472
 Alpha  occ. eigenvalues --   -0.46303  -0.45783  -0.43152  -0.41806  -0.41574
 Alpha  occ. eigenvalues --   -0.41426  -0.40496  -0.38550  -0.36987  -0.36782
 Alpha  occ. eigenvalues --   -0.36244  -0.34665  -0.32339  -0.31526  -0.28542
 Alpha  occ. eigenvalues --   -0.23718  -0.18623
 Alpha virt. eigenvalues --   -0.03840   0.01732   0.06425   0.08996   0.10711
 Alpha virt. eigenvalues --    0.12112   0.12260   0.12702   0.14471   0.15175
 Alpha virt. eigenvalues --    0.15349   0.15693   0.17866   0.18515   0.19538
 Alpha virt. eigenvalues --    0.19686   0.20093   0.22041   0.22724   0.25004
 Alpha virt. eigenvalues --    0.29321   0.32295   0.33464   0.34000   0.37251
 Alpha virt. eigenvalues --    0.40495   0.41399   0.48146   0.49888   0.53046
 Alpha virt. eigenvalues --    0.53618   0.54740   0.55286   0.56580   0.57468
 Alpha virt. eigenvalues --    0.57563   0.58636   0.60207   0.60817   0.61679
 Alpha virt. eigenvalues --    0.62331   0.63385   0.66766   0.66953   0.67390
 Alpha virt. eigenvalues --    0.73490   0.73757   0.74567   0.75166   0.76910
 Alpha virt. eigenvalues --    0.77325   0.83945   0.86218   0.88542   0.89135
 Alpha virt. eigenvalues --    0.89204   0.89695   0.89994   0.90075   0.91163
 Alpha virt. eigenvalues --    0.91670   0.93345   0.93558   0.95362   0.97243
 Alpha virt. eigenvalues --    0.98014   0.98506   1.02406   1.03615   1.04383
 Alpha virt. eigenvalues --    1.08397   1.11203   1.14386   1.20026   1.21962
 Alpha virt. eigenvalues --    1.23752   1.27283   1.31697   1.34027   1.36052
 Alpha virt. eigenvalues --    1.38336   1.39274   1.42636   1.43984   1.47015
 Alpha virt. eigenvalues --    1.47383   1.51519   1.55969   1.62204   1.67971
 Alpha virt. eigenvalues --    1.75518   1.78413   1.79761   1.80048   1.80577
 Alpha virt. eigenvalues --    1.88719   1.89285   1.93156   1.98394   2.01820
 Alpha virt. eigenvalues --    2.02392   2.02941   2.08351   2.11358   2.12069
 Alpha virt. eigenvalues --    2.14476   2.16981   2.19513   2.20035   2.24123
 Alpha virt. eigenvalues --    2.25681   2.26611   2.29695   2.29944   2.33125
 Alpha virt. eigenvalues --    2.36684   2.42635   2.43463   2.44764   2.46420
 Alpha virt. eigenvalues --    2.48262   2.57229   2.65111   2.73764   2.74921
 Alpha virt. eigenvalues --    2.81094   2.87016   2.91000   2.92203   3.02018
 Alpha virt. eigenvalues --    3.02254   4.06402   4.08058   4.10908   4.15001
 Alpha virt. eigenvalues --    4.16635   4.26545   4.31740   4.38951   4.46396
 Alpha virt. eigenvalues --    4.52017
          Condensed to atoms (all electrons):
               1          2          3          4          5          6
     1  C    4.912198   0.364975   0.589658  -0.053345  -0.015157  -0.003498
     2  H    0.364975   0.600383  -0.053301   0.006164  -0.008405   0.004019
     3  C    0.589658  -0.053301   4.926323   0.365348   0.389062  -0.044949
     4  H   -0.053345   0.006164   0.365348   0.601114  -0.045306   0.003716
     5  C   -0.015157  -0.008405   0.389062  -0.045306   4.935192   0.365732
     6  H   -0.003498   0.004019  -0.044949   0.003716   0.365732   0.599464
     7  C    0.001759   0.000403  -0.016844  -0.003275   0.585497  -0.054448
     8  H    0.000427   0.000015  -0.008205   0.003696  -0.052844   0.006204
     9  C   -0.000161  -0.000005   0.003017   0.000099  -0.020157  -0.008105
    10  H   -0.000003   0.000001   0.000114   0.000005  -0.002708   0.004024
    11  C    0.000003   0.000000  -0.000167  -0.000002   0.002144   0.000404
    12  H   -0.000000   0.000000  -0.000004   0.000001   0.000489   0.000015
    13  C    0.401011  -0.044426  -0.016972  -0.008430   0.003107   0.000114
    14  H   -0.044885   0.003772  -0.003470   0.004014   0.000125   0.000004
    15  C   -0.018642  -0.003823   0.001821   0.000395  -0.000169  -0.000002
    16  H   -0.009727   0.004109   0.000475   0.000014  -0.000004   0.000001
    17  C   -0.000000  -0.000000   0.000001  -0.000000  -0.000178  -0.000007
    18  H    0.000000  -0.000000  -0.000000  -0.000000   0.000011   0.000001
    19  H    0.000000   0.000000  -0.000000   0.000000   0.000002   0.000000
    20  H   -0.000000  -0.000000  -0.000000  -0.000000   0.000006  -0.000002
    21  C    0.003613   0.000039  -0.000176  -0.000007   0.000001  -0.000000
    22  H   -0.000135   0.000002   0.000002   0.000000  -0.000000   0.000000
    23  H    0.000025   0.000003   0.000009   0.000000  -0.000000   0.000000
    24  H    0.000028   0.000002   0.000010  -0.000000  -0.000000  -0.000000
               7          8          9         10         11         12
     1  C    0.001759   0.000427  -0.000161  -0.000003   0.000003  -0.000000
     2  H    0.000403   0.000015  -0.000005   0.000001   0.000000   0.000000
     3  C   -0.016844  -0.008205   0.003017   0.000114  -0.000167  -0.000004
     4  H   -0.003275   0.003696   0.000099   0.000005  -0.000002   0.000001
     5  C    0.585497  -0.052844  -0.020157  -0.002708   0.002144   0.000489
     6  H   -0.054448   0.006204  -0.008105   0.004024   0.000404   0.000015
     7  C    4.920501   0.363703   0.405957  -0.044682  -0.020741  -0.009264
     8  H    0.363703   0.598752  -0.044508   0.003900  -0.003012   0.004153
     9  C    0.405957  -0.044508   4.863227   0.365419   0.631573  -0.044130
    10  H   -0.044682   0.003900   0.365419   0.606157  -0.058467   0.006380
    11  C   -0.020741  -0.003012   0.631573  -0.058467   4.953168   0.371384
    12  H   -0.009264   0.004153  -0.044130   0.006380   0.371384   0.586824
    13  C   -0.000166  -0.000004   0.000001  -0.000000  -0.000000   0.000000
    14  H   -0.000003   0.000001  -0.000000  -0.000000   0.000000  -0.000000
    15  C    0.000003  -0.000000  -0.000000   0.000000  -0.000000   0.000000
    16  H   -0.000000  -0.000000   0.000000  -0.000000   0.000000   0.000000
    17  C    0.003530   0.000023  -0.034367  -0.007270   0.353950  -0.051772
    18  H    0.000036   0.000007  -0.005409   0.002856  -0.033044   0.003797
    19  H   -0.000134   0.000003   0.003463   0.000114  -0.024413  -0.003850
    20  H    0.000013  -0.000005  -0.008850   0.001094  -0.032724   0.002884
    21  C   -0.000000  -0.000000   0.000000  -0.000000  -0.000000  -0.000000
    22  H    0.000000   0.000000  -0.000000   0.000000   0.000000   0.000000
    23  H    0.000000   0.000000   0.000000   0.000000   0.000000   0.000000
    24  H   -0.000000  -0.000000  -0.000000  -0.000000  -0.000000  -0.000000
              13         14         15         16         17         18
     1  C    0.401011  -0.044885  -0.018642  -0.009727  -0.000000   0.000000
     2  H   -0.044426   0.003772  -0.003823   0.004109  -0.000000  -0.000000
     3  C   -0.016972  -0.003470   0.001821   0.000475   0.000001  -0.000000
     4  H   -0.008430   0.004014   0.000395   0.000014  -0.000000  -0.000000
     5  C    0.003107   0.000125  -0.000169  -0.000004  -0.000178   0.000011
     6  H    0.000114   0.000004  -0.000002   0.000001  -0.000007   0.000001
     7  C   -0.000166  -0.000003   0.000003  -0.000000   0.003530   0.000036
     8  H   -0.000004   0.000001  -0.000000  -0.000000   0.000023   0.000007
     9  C    0.000001  -0.000000  -0.000000   0.000000  -0.034367  -0.005409
    10  H   -0.000000  -0.000000   0.000000  -0.000000  -0.007270   0.002856
    11  C   -0.000000   0.000000  -0.000000   0.000000   0.353950  -0.033044
    12  H    0.000000  -0.000000   0.000000   0.000000  -0.051772   0.003797
    13  C    4.852274   0.366769   0.639498  -0.042801   0.000000  -0.000000
    14  H    0.366769   0.606945  -0.058272   0.006295  -0.000000   0.000000
    15  C    0.639498  -0.058272   4.941323   0.370599  -0.000000   0.000000
    16  H   -0.042801   0.006295   0.370599   0.588652  -0.000000   0.000000
    17  C    0.000000  -0.000000  -0.000000  -0.000000   5.089991   0.373238
    18  H   -0.000000   0.000000   0.000000   0.000000   0.373238   0.550167
    19  H   -0.000000   0.000000   0.000000   0.000000   0.372165  -0.026620
    20  H    0.000000   0.000000   0.000000   0.000000   0.386161  -0.029438
    21  C   -0.032792  -0.007602   0.352779  -0.051864   0.000000   0.000000
    22  H    0.003414   0.000113  -0.024543  -0.003925  -0.000000   0.000000
    23  H   -0.007495   0.002012  -0.032253   0.003335   0.000000   0.000000
    24  H   -0.007572   0.002007  -0.032269   0.003322  -0.000000  -0.000000
              19         20         21         22         23         24
     1  C    0.000000  -0.000000   0.003613  -0.000135   0.000025   0.000028
     2  H    0.000000  -0.000000   0.000039   0.000002   0.000003   0.000002
     3  C   -0.000000  -0.000000  -0.000176   0.000002   0.000009   0.000010
     4  H    0.000000  -0.000000  -0.000007   0.000000   0.000000  -0.000000
     5  C    0.000002   0.000006   0.000001  -0.000000  -0.000000  -0.000000
     6  H    0.000000  -0.000002  -0.000000   0.000000   0.000000  -0.000000
     7  C   -0.000134   0.000013  -0.000000   0.000000   0.000000  -0.000000
     8  H    0.000003  -0.000005  -0.000000   0.000000   0.000000  -0.000000
     9  C    0.003463  -0.008850   0.000000  -0.000000   0.000000  -0.000000
    10  H    0.000114   0.001094  -0.000000   0.000000   0.000000  -0.000000
    11  C   -0.024413  -0.032724  -0.000000   0.000000   0.000000  -0.000000
    12  H   -0.003850   0.002884  -0.000000   0.000000   0.000000  -0.000000
    13  C   -0.000000   0.000000  -0.032792   0.003414  -0.007495  -0.007572
    14  H    0.000000   0.000000  -0.007602   0.000113   0.002012   0.002007
    15  C    0.000000   0.000000   0.352779  -0.024543  -0.032253  -0.032269
    16  H    0.000000   0.000000  -0.051864  -0.003925   0.003335   0.003322
    17  C    0.372165   0.386161   0.000000  -0.000000   0.000000  -0.000000
    18  H   -0.026620  -0.029438   0.000000   0.000000   0.000000  -0.000000
    19  H    0.558518  -0.031463  -0.000000   0.000000   0.000000  -0.000000
    20  H   -0.031463   0.541903  -0.000000  -0.000000  -0.000000   0.000000
    21  C   -0.000000  -0.000000   5.091390   0.372931   0.379764   0.379937
    22  H    0.000000  -0.000000   0.372931   0.558141  -0.028964  -0.029085
    23  H    0.000000  -0.000000   0.379764  -0.028964   0.545466  -0.029303
    24  H   -0.000000   0.000000   0.379937  -0.029085  -0.029303   0.545378
 Mulliken charges:
               1
     1  C   -0.128143
     2  H    0.126074
     3  C   -0.131750
     4  H    0.125797
     5  C   -0.136440
     6  H    0.127312
     7  C   -0.131846
     8  H    0.127695
     9  C   -0.107065
    10  H    0.123063
    11  C   -0.140057
    12  H    0.133094
    13  C   -0.105530
    14  H    0.122172
    15  C   -0.136444
    16  H    0.131519
    17  C   -0.485466
    18  H    0.164398
    19  H    0.152214
    20  H    0.170421
    21  C   -0.488015
    22  H    0.152049
    23  H    0.167401
    24  H    0.167546
 Sum of Mulliken charges =  -0.00000
 Mulliken charges with hydrogens summed into heavy atoms:
               1
     1  C   -0.002069
     3  C   -0.005954
     5  C   -0.009127
     7  C   -0.004151
     9  C    0.015998
    11  C   -0.006963
    13  C    0.016642
    15  C   -0.004925
    17  C    0.001567
    21  C   -0.001019
 Electronic spatial extent (au):  <R**2>=           4041.2273
 Charge=             -0.0000 electrons
 Dipole moment (field-independent basis, Debye):
    X=             -0.0103    Y=             -0.0018    Z=              0.0065  Tot=              0.0123
 Quadrupole moment (field-independent basis, Debye-Ang):
   XX=            -52.3436   YY=            -55.9483   ZZ=            -66.0560
   XY=              0.2299   XZ=             -0.0660   YZ=              0.1388
 Traceless Quadrupole moment (field-independent basis, Debye-Ang):
   XX=              5.7724   YY=              2.1677   ZZ=             -7.9400
   XY=              0.2299   XZ=             -0.0660   YZ=              0.1388
 Octapole moment (field-independent basis, Debye-Ang**2):
  XXX=             -0.0911  YYY=              0.0491  ZZZ=              0.5464  XYY=             -0.4387
  XXY=             -0.1067  XXZ=              1.8008  XZZ=              0.3991  YZZ=             -0.0358
  YYZ=             -0.2177  XYZ=              1.3781
 Hexadecapole moment (field-independent basis, Debye-Ang**3):
 XXXX=          -4983.8880 YYYY=           -172.7058 ZZZZ=            -86.5201 XXXY=            -24.0758
 XXXZ=             -1.0033 YYYX=             -6.5541 YYYZ=              0.1871 ZZZX=             -2.4195
 ZZZY=             -0.0262 XXYY=           -862.1915 XXZZ=           -924.7044 YYZZ=            -45.3652
 XXYZ=              0.7918 YYXZ=              1.6539 ZZXY=              9.9080
 N-N= 4.231936453780D+02 E-N=-1.746610216075D+03  KE= 3.853637454883D+02
 No NMR shielding tensors so no spin-rotation constants.
 Leave Link  601 at Sun Jun  6 12:23:31 2021, MaxMem=    33554432 cpu:         0.1
 (Enter /opt/app/gaussian09/e01/g09/l701.exe)
 Compute integral first derivatives.
 ... and contract with generalized density number  0.
 Leave Link  701 at Sun Jun  6 12:23:32 2021, MaxMem=    33554432 cpu:         0.2
 (Enter /opt/app/gaussian09/e01/g09/l702.exe)
 L702 exits ... SP integral derivatives will be done elsewhere.
 Leave Link  702 at Sun Jun  6 12:23:33 2021, MaxMem=    33554432 cpu:         0.0
 (Enter /opt/app/gaussian09/e01/g09/l703.exe)
 Compute integral first derivatives, UseDBF=F ICtDFT=           0.
 Integral derivatives from FoFJK, PRISM(SPDF).
 Calling FoFJK, ICntrl=      2127 FMM=F ISym2X=0 I1Cent= 0 IOpClX= 0 NMat=1 NMatS=1 NMatT=0.
 FoFJK:  IHMeth= 1 ICntrl=    2127 DoSepK=F KAlg= 0 I1Cent=   0 FoldK=F
 IRaf=         0 NMat=   1 IRICut=       1 DoRegI=T DoRafI=F ISym2E= 0.
 FoFCou: FMM=F IPFlag=           0 FMFlag=      100000 FMFlg1=         800
         NFxFlg=           0 DoJE=F BraDBF=F KetDBF=F FulRan=T
         wScrn=  0.000000 ICntrl=    2127 IOpCl=  0 I1Cent=           0 NGrid=           0
         NMat0=    1 NMatS0=      1 NMatT0=    0 NMatD0=    1 NMtDS0=    0 NMtDT0=    0
 Symmetry not used in FoFCou.
 Leave Link  703 at Sun Jun  6 12:24:00 2021, MaxMem=    33554432 cpu:        25.6
 (Enter /opt/app/gaussian09/e01/g09/l716.exe)
 Dipole        =-4.05961604D-03-6.99973765D-04 2.55328241D-03
 ***** Axes restored to original set *****
 -------------------------------------------------------------------
 Center     Atomic                   Forces (Hartrees/Bohr)
 Number     Number              X              Y              Z
 -------------------------------------------------------------------
      1        6           0.057926307   -0.027871989    0.000021723
      2        1          -0.012032727   -0.005227553   -0.000148598
      3        6          -0.058748821    0.029661839   -0.009736923
      4        1           0.012042335    0.005236997    0.000204055
      5        6           0.057107569   -0.031919153   -0.002227572
      6        1          -0.012362915   -0.005342056    0.008586998
      7        6          -0.053453650    0.028726478    0.024990506
      8        1           0.014170233    0.004466303    0.005679791
      9        6           0.059492084   -0.023444364   -0.023724609
     10        1          -0.015025293   -0.004411490   -0.005900124
     11        6          -0.036945686    0.001313501    0.001535903
     12        1           0.012681880    0.001778045   -0.009501493
     13        6          -0.064749110    0.022704222    0.001223607
     14        1           0.012694538    0.005220479   -0.000019691
     15        6           0.039826893    0.001000233    0.000018484
     16        1          -0.012321209   -0.001318393    0.000095791
     17        6           0.026488046   -0.028335902    0.007920483
     18        1          -0.012229306    0.005487199    0.014006218
     19        1           0.007479417    0.015704794    0.000212540
     20        1          -0.010506877    0.002896634   -0.013005358
     21        6          -0.026779505    0.027839441   -0.000231938
     22        1          -0.007228672   -0.015854382   -0.000027413
     23        1           0.011266718   -0.004188282   -0.013466256
     24        1           0.011207749   -0.004122602    0.013493876
 -------------------------------------------------------------------
 Cartesian Forces:  Max     0.064749110 RMS     0.022415574
 Leave Link  716 at Sun Jun  6 12:24:01 2021, MaxMem=    33554432 cpu:         0.0
 (Enter /opt/app/gaussian09/e01/g09/l103.exe)

 GradGradGradGradGradGradGradGradGradGradGradGradGradGradGradGradGradGrad
 Berny optimization.
 FormGI is forming the generalized inverse of G from B-inverse, IUseBI=4.
 Internal  Forces:  Max     0.047065356 RMS     0.011327182
 Search for a local minimum.
 Step number   1 out of a maximum of  109
 All quantities printed in internal units (Hartrees-Bohrs-Radians)
 RMS Force = .11327D-01 SwitMx=.10000D-02 MixMth= 1
 Mixed Optimization -- RFO/linear search
 Second derivative matrix not updated -- first step.
 ITU=  0
     Eigenvalues ---    0.00237   0.00237   0.00237   0.00237   0.00237
     Eigenvalues ---    0.01215   0.01219   0.01459   0.01459   0.01459
     Eigenvalues ---    0.01459   0.01459   0.01459   0.02681   0.02681
     Eigenvalues ---    0.02681   0.02681   0.07243   0.07243   0.07243
     Eigenvalues ---    0.07243   0.16000   0.16000   0.16000   0.16000
     Eigenvalues ---    0.16000   0.16000   0.16000   0.16000   0.16000
     Eigenvalues ---    0.16000   0.16000   0.16000   0.16000   0.16000
     Eigenvalues ---    0.22000   0.22000   0.22000   0.22000   0.22000
     Eigenvalues ---    0.22000   0.22000   0.22000   0.28519   0.28519
     Eigenvalues ---    0.28519   0.28519   0.28519   0.37230   0.37230
     Eigenvalues ---    0.37230   0.37230   0.37230   0.37230   0.37230
     Eigenvalues ---    0.37230   0.37230   0.37230   0.37230   0.37230
     Eigenvalues ---    0.37230   0.37230   0.53930   0.53930   0.53930
     Eigenvalues ---    0.53930
 RFO step:  Lambda=-4.52267755D-02 EMin= 2.36824041D-03
 Linear search not attempted -- first point.
 Maximum step size (   0.300) exceeded in Quadratic search.
    -- Step size scaled by   0.876
 Iteration  1 RMS(Cart)=  0.06012513 RMS(Int)=  0.00209044
 Iteration  2 RMS(Cart)=  0.00408098 RMS(Int)=  0.00008521
 Iteration  3 RMS(Cart)=  0.00001073 RMS(Int)=  0.00008505
 Iteration  4 RMS(Cart)=  0.00000000 RMS(Int)=  0.00008505
 ITry= 1 IFail=0 DXMaxC= 2.55D-01 DCOld= 1.00D+10 DXMaxT= 3.00D-01 DXLimC= 3.00D+00 Rises=F
 Variable       Old X    -DE/DX   Delta X   Delta X   Delta X     New X
                                 (Linear)    (Quad)   (Total)
    R1        2.02201   0.01203   0.00000   0.02525   0.02525   2.04726
    R2        2.56096  -0.00331   0.00000  -0.00496  -0.00496   2.55599
    R3        2.91018  -0.04510   0.00000  -0.11960  -0.11960   2.79058
    R4        2.02201   0.01204   0.00000   0.02527   0.02527   2.04728
    R5        2.91018  -0.04707   0.00000  -0.12481  -0.12481   2.78537
    R6        2.02201   0.01236   0.00000   0.02594   0.02594   2.04795
    R7        2.56096  -0.00029   0.00000  -0.00043  -0.00043   2.56053
    R8        2.02201   0.01244   0.00000   0.02610   0.02610   2.04811
    R9        2.91018  -0.04627   0.00000  -0.12270  -0.12270   2.78748
   R10        2.02201   0.01321   0.00000   0.02773   0.02773   2.04973
   R11        2.56096  -0.00750   0.00000  -0.01124  -0.01124   2.54972
   R12        2.02201   0.01268   0.00000   0.02661   0.02661   2.04862
   R13        2.91018  -0.00928   0.00000  -0.02461  -0.02461   2.88557
   R14        2.02201   0.01269   0.00000   0.02664   0.02664   2.04865
   R15        2.56096  -0.01087   0.00000  -0.01629  -0.01629   2.54467
   R16        2.02201   0.01233   0.00000   0.02587   0.02587   2.04788
   R17        2.91018  -0.00898   0.00000  -0.02382  -0.02382   2.88636
   R18        2.02201   0.01876   0.00000   0.03938   0.03938   2.06138
   R19        2.02201   0.01678   0.00000   0.03522   0.03522   2.05722
   R20        2.02201   0.01681   0.00000   0.03529   0.03529   2.05729
   R21        2.02201   0.01677   0.00000   0.03519   0.03519   2.05719
   R22        2.02201   0.01769   0.00000   0.03712   0.03712   2.05912
   R23        2.02201   0.01767   0.00000   0.03709   0.03709   2.05909
    A1        2.09241  -0.00056   0.00000   0.00325   0.00325   2.09566
    A2        2.09241  -0.01113   0.00000  -0.04188  -0.04188   2.05053
    A3        2.09836   0.01169   0.00000   0.03862   0.03862   2.13697
    A4        2.09241  -0.00042   0.00000   0.00372   0.00368   2.09610
    A5        2.09836   0.01143   0.00000   0.03777   0.03773   2.13609
    A6        2.09241  -0.01101   0.00000  -0.04149  -0.04153   2.05089
    A7        2.09241  -0.01116   0.00000  -0.04209  -0.04210   2.05032
    A8        2.09836   0.01152   0.00000   0.03806   0.03805   2.13641
    A9        2.09241  -0.00036   0.00000   0.00403   0.00402   2.09643
   A10        2.09241  -0.00039   0.00000   0.00403   0.00398   2.09640
   A11        2.09836   0.01183   0.00000   0.03909   0.03904   2.13740
   A12        2.09241  -0.01144   0.00000  -0.04312  -0.04316   2.04925
   A13        2.09241  -0.01142   0.00000  -0.04304  -0.04307   2.04934
   A14        2.09836   0.01180   0.00000   0.03900   0.03896   2.13731
   A15        2.09241  -0.00039   0.00000   0.00404   0.00400   2.09641
   A16        2.09241  -0.00431   0.00000  -0.01250  -0.01252   2.07990
   A17        2.09836   0.01222   0.00000   0.04036   0.04034   2.13870
   A18        2.09241  -0.00791   0.00000  -0.02785  -0.02787   2.06455
   A19        2.09241  -0.01114   0.00000  -0.04190  -0.04190   2.05052
   A20        2.09836   0.01172   0.00000   0.03873   0.03873   2.13708
   A21        2.09241  -0.00058   0.00000   0.00317   0.00317   2.09558
   A22        2.09836  -0.00545   0.00000  -0.01680  -0.01680   2.08156
   A23        2.09241   0.01342   0.00000   0.04434   0.04434   2.13676
   A24        2.09241  -0.00797   0.00000  -0.02755  -0.02755   2.06487
   A25        1.91063   0.00564   0.00000   0.02445   0.02425   1.93488
   A26        1.91063   0.00512   0.00000   0.02220   0.02201   1.93264
   A27        1.91063   0.00108   0.00000   0.00387   0.00381   1.91444
   A28        1.91063  -0.00480   0.00000  -0.01904  -0.01935   1.89128
   A29        1.91063  -0.00364   0.00000  -0.01625  -0.01632   1.89432
   A30        1.91063  -0.00339   0.00000  -0.01523  -0.01529   1.89535
   A31        1.91063   0.00537   0.00000   0.02320   0.02302   1.93365
   A32        1.91063   0.00339   0.00000   0.01433   0.01419   1.92482
   A33        1.91063   0.00324   0.00000   0.01365   0.01352   1.92415
   A34        1.91063  -0.00425   0.00000  -0.01781  -0.01798   1.89265
   A35        1.91063  -0.00420   0.00000  -0.01767  -0.01784   1.89280
   A36        1.91063  -0.00354   0.00000  -0.01571  -0.01580   1.89483
    D1        3.14159  -0.00019   0.00000  -0.00430  -0.00444   3.13715
    D2        0.00000   0.00093   0.00000   0.01216   0.01222   0.01222
    D3       -0.00000   0.00024   0.00000   0.00211   0.00205   0.00205
    D4        3.14159   0.00137   0.00000   0.01857   0.01871  -3.12288
    D5        3.14159   0.00014   0.00000   0.00216   0.00214  -3.13946
    D6       -0.00000   0.00033   0.00000   0.00493   0.00487   0.00487
    D7        0.00000  -0.00030   0.00000  -0.00425  -0.00420  -0.00420
    D8        3.14159  -0.00011   0.00000  -0.00148  -0.00146   3.14013
    D9        0.00000  -0.00122   0.00000  -0.01916  -0.01900  -0.01900
   D10        3.14159  -0.00062   0.00000  -0.01049  -0.01045   3.13115
   D11        3.14159  -0.00009   0.00000  -0.00270  -0.00274   3.13885
   D12       -0.00000   0.00050   0.00000   0.00596   0.00581   0.00581
   D13        0.28444  -0.00815   0.00000  -0.09836  -0.09830   0.18613
   D14       -2.85716  -0.00939   0.00000  -0.11649  -0.11666  -2.97382
   D15       -2.85716  -0.00756   0.00000  -0.08970  -0.08953  -2.94669
   D16        0.28444  -0.00880   0.00000  -0.10783  -0.10789   0.17654
   D17       -0.00000   0.00120   0.00000   0.01764   0.01741   0.01741
   D18        3.14159   0.00007   0.00000   0.00102   0.00101  -3.14058
   D19        3.14159  -0.00004   0.00000  -0.00049  -0.00048   3.14111
   D20        0.00000  -0.00117   0.00000  -0.01710  -0.01688  -0.01688
   D21       -0.28444   0.00900   0.00000   0.10984   0.10992  -0.17451
   D22        2.85716   0.00969   0.00000   0.12027   0.12040   2.97756
   D23        2.85716   0.00787   0.00000   0.09323   0.09310   2.95025
   D24       -0.28444   0.00855   0.00000   0.10365   0.10357  -0.18086
   D25        1.06837  -0.00096   0.00000  -0.01279  -0.01287   1.05550
   D26       -3.12042  -0.00026   0.00000  -0.00754  -0.00743  -3.12785
   D27       -1.02602  -0.00062   0.00000  -0.01023  -0.01021  -1.03624
   D28       -2.07322  -0.00028   0.00000  -0.00236  -0.00248  -2.07570
   D29        0.02117   0.00043   0.00000   0.00288   0.00296   0.02414
   D30        2.11557   0.00007   0.00000   0.00020   0.00018   2.11574
   D31        0.00000  -0.00022   0.00000  -0.00279  -0.00281  -0.00281
   D32        3.14159  -0.00028   0.00000  -0.00372  -0.00373   3.13786
   D33        3.14159  -0.00003   0.00000  -0.00002  -0.00000   3.14159
   D34       -0.00000  -0.00009   0.00000  -0.00094  -0.00093  -0.00093
   D35       -3.14057   0.00002   0.00000   0.00044   0.00044  -3.14014
   D36       -1.04618   0.00018   0.00000   0.00162   0.00165  -1.04453
   D37        1.04822  -0.00010   0.00000  -0.00049  -0.00052   1.04770
   D38        0.00102  -0.00004   0.00000  -0.00048  -0.00048   0.00054
   D39        2.09542   0.00012   0.00000   0.00070   0.00073   2.09615
   D40       -2.09337  -0.00016   0.00000  -0.00141  -0.00144  -2.09481
         Item               Value     Threshold  Converged?
 Maximum Force            0.047065     0.000450     NO 
 RMS     Force            0.011327     0.000300     NO 
 Maximum Displacement     0.254604     0.001800     NO 
 RMS     Displacement     0.061046     0.001200     NO 
 Predicted change in Energy=-2.633838D-02
 Lowest energy point so far.  Saving SCF results.
 GradGradGradGradGradGradGradGradGradGradGradGradGradGradGradGradGradGrad

 Leave Link  103 at Sun Jun  6 12:24:01 2021, MaxMem=    33554432 cpu:         0.0
 (Enter /opt/app/gaussian09/e01/g09/l202.exe)
                          Input orientation:                          
 ---------------------------------------------------------------------
 Center     Atomic      Atomic             Coordinates (Angstroms)
 Number     Number       Type             X           Y           Z
 ---------------------------------------------------------------------
      1          6           0       -1.325646   -1.642237    0.015435
      2          1           0       -2.408358   -1.675272    0.033300
      3          6           0       -0.683793   -0.451658    0.015555
      4          1           0        0.398977   -0.418187    0.001858
      5          6           0       -1.404172    0.833668    0.054609
      6          1           0       -2.487310    0.799628    0.065659
      7          6           0       -0.761285    2.026356    0.066689
      8          1           0        0.304370    2.071668   -0.125599
      9          6           0       -1.461729    3.300920    0.313065
     10          1           0       -2.528316    3.255709    0.505063
     11          6           0       -0.821651    4.488635    0.323940
     12          1           0        0.262217    4.504888    0.309710
     13          6           0       -0.604610   -2.930852   -0.000361
     14          1           0        0.478868   -2.897782   -0.016185
     15          6           0       -1.243467   -4.116235    0.001177
     16          1           0       -2.326894   -4.134100    0.017107
     17          6           0       -1.564876    5.821765    0.369187
     18          1           0       -2.172557    5.897266    1.271932
     19          1           0       -0.863746    6.654470    0.357104
     20          1           0       -2.219359    5.906410   -0.496664
     21          6           0       -0.497314   -5.448807   -0.019977
     22          1           0       -1.196464   -6.283236   -0.016479
     23          1           0        0.121311   -5.521208   -0.914059
     24          1           0        0.146276   -5.534517    0.855084
 ---------------------------------------------------------------------
                    Distance matrix (angstroms):
                    1          2          3          4          5
     1  C    0.000000
     2  H    1.083363   0.000000
     3  C    1.352573   2.114633   0.000000
     4  H    2.114901   3.076098   1.083373   0.000000
     5  C    2.477460   2.702522   1.473953   2.195739   0.000000
     6  H    2.704568   2.476370   2.195655   3.133336   1.083729
     7  C    3.712103   4.051668   2.479753   2.706696   1.354973
     8  H    4.058317   4.628575   2.713589   2.494910   2.117601
     9  C    4.953978   5.073151   3.843896   4.170232   2.481419
    10  H    5.067152   4.954950   4.169707   4.724381   2.707931
    11  C    6.159284   6.371488   4.951828   5.066614   3.710883
    12  H    6.355711   6.738157   5.054584   4.934587   4.039775
    13  C    1.476710   2.197981   2.480509   2.705675   3.848888
    14  H    2.198560   3.135770   2.708562   2.480947   4.180260
    15  C    2.475404   2.704867   3.707097   4.046379   4.952800
    16  H    2.685495   2.460231   4.032390   4.608538   5.052876
    17  C    7.476208   7.551810   6.344856   6.551996   5.000589
    18  H    7.690263   7.676793   6.641065   6.936197   5.264248
    19  H    8.316576   8.477929   7.116607   7.193271   5.853656
    20  H    7.618598   7.602531   6.560896   6.863289   5.167314
    21  C    3.895814   4.230189   5.000754   5.109888   6.348028
    22  H    4.642906   4.764923   5.854157   6.078204   7.120289
    23  H    4.243119   4.699780   5.216580   5.191996   6.606805
    24  H    4.245163   4.700559   5.218168   5.193138   6.602911
                    6          7          8          9         10
     6  H    0.000000
     7  C    2.117551   0.000000
     8  H    3.073783   1.083813   0.000000
     9  C    2.714680   1.475071   2.196040   0.000000
    10  H    2.495415   2.196788   3.134294   1.084673   0.000000
    11  C    4.055848   2.476417   2.704023   1.349254   2.113200
    12  H    4.620435   2.692534   2.472212   2.102746   3.063607
    13  C    4.179163   4.960137   5.085975   6.298243   6.498434
    14  H    4.740859   5.078581   4.973716   6.503708   6.868792
    15  C    5.071195   6.161836   6.379814   7.426917   7.500021
    16  H    4.936574   6.356478   6.742068   7.491036   7.408641
    17  C    5.115161   3.891322   4.219256   2.523578   2.744325
    18  H    5.247864   4.292813   4.766913   2.857572   2.773531
    19  H    6.082769   4.638348   4.753901   3.406732   3.787382
    20  H    5.144631   4.183080   4.605664   2.831650   2.850460
    21  C    6.558229   7.480325   7.563822   8.809015   8.953729
    22  H    7.199999   8.321395   8.489336   9.593487   9.645585
    23  H    6.907801   7.662021   7.635898   9.046644   9.277322
    24  H    6.905097   7.655850   7.670775   8.996911   9.194783
                   11         12         13         14         15
    11  C    0.000000
    12  H    1.084084   0.000000
    13  C    7.429742   7.492514   0.000000
    14  H    7.507742   7.413007   1.084098   0.000000
    15  C    8.621247   8.757057   1.346579   2.109827   0.000000
    16  H    8.758509   9.023372   2.101042   3.066251   1.083692
    17  C    1.526979   2.252991   8.812887   8.964145   9.950004
    18  H    2.169764   2.965250   9.056095   9.275892  10.136480
    19  H    2.166498   2.427085   9.595485   9.653366  10.783273
    20  H    2.153384   2.961878   8.997273   9.220904  10.082342
    21  C    9.948680   9.988075   2.520317   2.731424   1.527397
    22  H   10.783764  10.891179   3.404266   3.777305   2.167582
    23  H   10.130092  10.101488   2.841082   2.795780   2.161995
    24  H   10.083778  10.054877   2.841599   2.796802   2.161496
                   16         17         18         19         20
    16  H    0.000000
    17  C    9.991190   0.000000
    18  H   10.110723   1.090837   0.000000
    19  H   10.892642   1.088636   1.767273   0.000000
    20  H   10.054221   1.088673   1.769238   1.768106   0.000000
    21  C    2.253263  11.327706  11.541614  12.114693  11.494939
    22  H    2.428535  12.116744  12.287285  12.947374  12.241909
    23  H    2.963924  11.539193  11.849976  12.281422  11.672335
    24  H    2.963097  11.494750  11.672036  12.240896  11.760878
                   21         22         23         24
    21  C    0.000000
    22  H    1.088620   0.000000
    23  H    1.089642   1.767163   0.000000
    24  H    1.089626   1.767244   1.769368   0.000000
 Stoichiometry    C10H14
 Framework group  C1[X(C10H14)]
 Deg. of freedom    66
 Full point group                 C1      NOp   1
 RotChk:  IX=0 Diff= 3.42D-03
 Largest Abelian subgroup         C1      NOp   1
 Largest concise Abelian subgroup C1      NOp   1
                         Standard orientation:                         
 ---------------------------------------------------------------------
 Center     Atomic      Atomic             Coordinates (Angstroms)
 Number     Number       Type             X           Y           Z
 ---------------------------------------------------------------------
      1          6           0       -1.813710    0.389205   -0.053625
      2          1           0       -1.785396    1.471724   -0.085664
      3          6           0       -0.661723   -0.319515   -0.063434
      4          1           0       -0.689454   -1.401929   -0.027246
      5          6           0        0.662493    0.326644   -0.101724
      6          1           0        0.689580    1.409339   -0.140554
      7          6           0        1.816961   -0.382688   -0.099617
      8          1           0        1.795510   -1.456771   -0.242925
      9          6           0        3.136858    0.253558    0.070369
     10          1           0        3.158451    1.328551    0.213340
     11          6           0        4.286478   -0.452741    0.071309
     12          1           0        4.241487   -1.535282    0.107598
     13          6           0       -3.140399   -0.256371    0.008027
     14          1           0       -3.168647   -1.339563    0.042139
     15          6           0       -4.287309    0.449137    0.019458
     16          1           0       -4.243889    1.531408   -0.015060
     17          6           0        5.659895    0.213728    0.036513
     18          1           0        5.802071    0.856144    0.906578
     19          1           0        6.451044   -0.534043    0.029383
     20          1           0        5.749524    0.822530   -0.861560
     21          6           0       -5.659458   -0.219198    0.078424
     22          1           0       -6.452749    0.526310    0.077136
     23          1           0       -5.798838   -0.872316   -0.782580
     24          1           0       -5.749204   -0.816659    0.985216
 ---------------------------------------------------------------------
 Rotational constants (GHZ):     13.4561416      0.2773811      0.2729138
 Leave Link  202 at Sun Jun  6 12:24:01 2021, MaxMem=    33554432 cpu:         0.0
 (Enter /opt/app/gaussian09/e01/g09/l301.exe)
 Standard basis: 6-31G(d) (6D, 7F)
 Ernie: Thresh=  0.10000D-02 Tol=  0.10000D-05 Strict=F.
 There are   178 symmetry adapted cartesian basis functions of A   symmetry.
 There are   178 symmetry adapted basis functions of A   symmetry.
   178 basis functions,   336 primitive gaussians,   178 cartesian basis functions
    37 alpha electrons       37 beta electrons
       nuclear repulsion energy       426.6393373571 Hartrees.
 IExCor=  402 DFT=T Ex+Corr=B3LYP ExCW=0 ScaHFX=  0.200000
 ScaDFX=  0.800000  0.720000  1.000000  0.810000 ScalE2=  1.000000  1.000000
 IRadAn=      5 IRanWt=     -1 IRanGd=            0 ICorTp=0 IEmpDi=  4
 NAtoms=   24 NActive=   24 NUniq=   24 SFac= 1.00D+00 NAtFMM=   60 NAOKFM=F Big=F
 Integral buffers will be    131072 words long.
 Raffenetti 2 integral format.
 Two-electron integral symmetry is turned on.
 Leave Link  301 at Sun Jun  6 12:24:01 2021, MaxMem=    33554432 cpu:         0.0
 (Enter /opt/app/gaussian09/e01/g09/l302.exe)
 NPDir=0 NMtPBC=     1 NCelOv=     1 NCel=       1 NClECP=     1 NCelD=      1
         NCelK=      1 NCelE2=     1 NClLst=     1 CellRange=     0.0.
 One-electron integrals computed using PRISM.
 NBasis=   178 RedAO= T EigKep=  1.95D-03  NBF=   178
 NBsUse=   178 1.00D-06 EigRej= -1.00D+00 NBFU=   178
 Precomputing XC quadrature grid using
 IXCGrd= 4 IRadAn=           5 IRanWt=          -1 IRanGd=           0 AccXCQ= 0.00D+00.
 Generated NRdTot=       0 NPtTot=           0 NUsed=           0 NTot=          32
 NSgBfM=   176   176   176   176   176 MxSgAt=    24 MxSgA2=    24.
 Leave Link  302 at Sun Jun  6 12:24:02 2021, MaxMem=    33554432 cpu:         1.0
 (Enter /opt/app/gaussian09/e01/g09/l303.exe)
 DipDrv:  MaxL=1.
 Leave Link  303 at Sun Jun  6 12:24:02 2021, MaxMem=    33554432 cpu:         0.0
 (Enter /opt/app/gaussian09/e01/g09/l401.exe)
 Initial guess from the checkpoint file:  "mini_4_pp_opt.chk"
 B after Tr=     0.000000    0.000000   -0.000000
         Rot=    1.000000    0.000377    0.000051   -0.000520 Ang=   0.07 deg.
 Guess basis will be translated and rotated to current coordinates.
 JPrj=2 DoOrth=T DoCkMO=T.
 Generating alternative initial guess.
 ExpMin= 1.61D-01 ExpMax= 3.05D+03 ExpMxC= 4.57D+02 IAcc=2 IRadAn=         4 AccDes= 0.00D+00
 Harris functional with IExCor=  402 and IRadAn=       4 diagonalized for initial guess.
 HarFok:  IExCor=  402 AccDes= 0.00D+00 IRadAn=         4 IDoV= 1 UseB2=F ITyADJ=14
 ICtDFT=  3500011 ScaDFX=  1.000000  1.000000  1.000000  1.000000
 FoFCou: FMM=F IPFlag=           0 FMFlag=      100000 FMFlg1=           0
         NFxFlg=           0 DoJE=T BraDBF=F KetDBF=T FulRan=T
         wScrn=  0.000000 ICntrl=     500 IOpCl=  0 I1Cent=   200000004 NGrid=           0
         NMat0=    1 NMatS0=      1 NMatT0=    0 NMatD0=    1 NMtDS0=    0 NMtDT0=    0
 Petite list used in FoFCou.
 Harris En= -389.520513920795    
 Leave Link  401 at Sun Jun  6 12:24:06 2021, MaxMem=    33554432 cpu:         3.9
 (Enter /opt/app/gaussian09/e01/g09/l502.exe)
 Closed shell SCF:
 Using DIIS extrapolation, IDIIS=  1040.
 Integral symmetry usage will be decided dynamically.
 IVT=      116032 IEndB=      116032 NGot=    33554432 MDV=    33486903
 LenX=    33486903 LenY=    33454778
 Requested convergence on RMS density matrix=1.00D-08 within 128 cycles.
 Requested convergence on MAX density matrix=1.00D-06.
 Requested convergence on             energy=1.00D-06.
 No special actions if energy rises.
 Fock matrices will be formed incrementally for  20 cycles.
 Integral accuracy reduced to 1.0D-05 until final iterations.

 Cycle   1  Pass 0  IDiag  1:
 FoFJK:  IHMeth= 1 ICntrl=       0 DoSepK=F KAlg= 0 I1Cent=   0 FoldK=F
[...]
    22  H   10.587390  10.669184   3.250518   3.519657   2.156871
    23  H    9.931451   9.866682   2.678779   2.442941   2.157315
    24  H   10.586582  10.668239   3.249965   3.518804   2.156870
                   16         17         18         19         20
    16  H    0.000000
    17  C   10.011893   0.000000
    18  H   10.668622   1.099167   0.000000
    19  H   10.668766   1.099192   1.759724   0.000000
    20  H    9.866675   1.095264   1.775203   1.775180   0.000000
    21  C    2.210728  11.321708  11.929973  11.930094  11.352796
    22  H    2.579888  11.930419  12.605333  12.482103  11.928723
    23  H    3.111034  11.352789  11.928424  11.928393  11.488687
    24  H    2.580431  11.929671  12.481100  12.604744  11.928136
                   21         22         23         24
    21  C    0.000000
    22  H    1.099168   0.000000
    23  H    1.095263   1.775182   0.000000
    24  H    1.099190   1.759723   1.775174   0.000000
 Stoichiometry    C10H14
 Framework group  C1[X(C10H14)]
 Deg. of freedom    66
 Full point group                 C1      NOp   1
 RotChk:  IX=0 Diff= 9.99D-17
 Largest Abelian subgroup         C1      NOp   1
 Largest concise Abelian subgroup C1      NOp   1
                         Standard orientation:                         
 ---------------------------------------------------------------------
 Center     Atomic      Atomic             Coordinates (Angstroms)
 Number     Number       Type             X           Y           Z
 ---------------------------------------------------------------------
      1          6           0       -1.824702    0.370946   -0.000156
      2          1           0       -1.799321    1.461780   -0.000075
      3          6           0       -0.650709   -0.308644   -0.000284
      4          1           0       -0.677442   -1.399536   -0.000218
      5          6           0        0.650708    0.308618   -0.000262
      6          1           0        0.677433    1.399511   -0.000211
      7          6           0        1.824710   -0.370953   -0.000106
      8          1           0        1.799359   -1.461787   -0.000044
      9          6           0        3.130841    0.249894    0.000082
     10          1           0        3.152807    1.341277    0.000059
     11          6           0        4.297323   -0.423522    0.000113
     12          1           0        4.268921   -1.514510    0.000147
     13          6           0       -3.130847   -0.249874    0.000001
     14          1           0       -3.152835   -1.341260   -0.000158
     15          6           0       -4.297325    0.423555    0.000072
     16          1           0       -4.268905    1.514539    0.000115
     17          6           0        5.657105    0.205980    0.000168
     18          1           0        6.239913   -0.100972    0.880101
     19          1           0        6.240040   -0.101232   -0.879623
     20          1           0        5.595426    1.299506   -0.000037
     21          6           0       -5.657105   -0.205989    0.000219
     22          1           0       -6.240412    0.101758   -0.879106
     23          1           0       -5.595419   -1.299513   -0.000646
     24          1           0       -6.239563    0.100380    0.880616
 ---------------------------------------------------------------------
 Rotational constants (GHZ):     14.2473887      0.2770680      0.2726980
 Leave Link  202 at Sun Jun  6 13:10:32 2021, MaxMem=    33554432 cpu:         0.0
 (Enter /opt/app/gaussian09/e01/g09/l601.exe)
 Copying SCF densities to generalized density rwf, IOpCl= 0 IROHF=0.

 **********************************************************************

            Population analysis using the SCF density.

 **********************************************************************

 Orbital symmetries:
       Occupied  (A) (A) (A) (A) (A) (A) (A) (A) (A) (A) (A) (A)
                 (A) (A) (A) (A) (A) (A) (A) (A) (A) (A) (A) (A)
                 (A) (A) (A) (A) (A) (A) (A) (A) (A) (A) (A) (A)
                 (A)
       Virtual   (A) (A) (A) (A) (A) (A) (A) (A) (A) (A) (A) (A)
                 (A) (A) (A) (A) (A) (A) (A) (A) (A) (A) (A) (A)
                 (A) (A) (A) (A) (A) (A) (A) (A) (A) (A) (A) (A)
                 (A) (A) (A) (A) (A) (A) (A) (A) (A) (A) (A) (A)
                 (A) (A) (A) (A) (A) (A) (A) (A) (A) (A) (A) (A)
                 (A) (A) (A) (A) (A) (A) (A) (A) (A) (A) (A) (A)
                 (A) (A) (A) (A) (A) (A) (A) (A) (A) (A) (A) (A)
                 (A) (A) (A) (A) (A) (A) (A) (A) (A) (A) (A) (A)
                 (A) (A) (A) (A) (A) (A) (A) (A) (A) (A) (A) (A)
                 (A) (A) (A) (A) (A) (A) (A) (A) (A) (A) (A) (A)
                 (A) (A) (A) (A) (A) (A) (A) (A) (A) (A) (A) (A)
                 (A) (A) (A) (A) (A) (A) (A) (A) (A)
 The electronic state is 1-A.
 Alpha  occ. eigenvalues --  -10.18791 -10.18791 -10.18584 -10.18577 -10.18500
 Alpha  occ. eigenvalues --  -10.18468 -10.18302 -10.18302 -10.18259 -10.18259
 Alpha  occ. eigenvalues --   -0.81846  -0.80162  -0.77580  -0.74090  -0.69699
 Alpha  occ. eigenvalues --   -0.66026  -0.59267  -0.55743  -0.54439  -0.54409
 Alpha  occ. eigenvalues --   -0.47404  -0.46615  -0.43074  -0.42992  -0.41024
 Alpha  occ. eigenvalues --   -0.41015  -0.39872  -0.38332  -0.36956  -0.36207
 Alpha  occ. eigenvalues --   -0.35508  -0.34526  -0.33803  -0.33572  -0.29990
 Alpha  occ. eigenvalues --   -0.24748  -0.18417
 Alpha virt. eigenvalues --   -0.04789   0.02744   0.08689   0.09562   0.11413
 Alpha virt. eigenvalues --    0.11703   0.11877   0.11919   0.15043   0.15254
 Alpha virt. eigenvalues --    0.15785   0.16241   0.17315   0.17358   0.17385
 Alpha virt. eigenvalues --    0.17753   0.20168   0.20214   0.24825   0.26434
 Alpha virt. eigenvalues --    0.31642   0.35585   0.36022   0.37947   0.41042
 Alpha virt. eigenvalues --    0.42625   0.43040   0.48180   0.49453   0.52407
 Alpha virt. eigenvalues --    0.53307   0.55628   0.57200   0.57205   0.57545
 Alpha virt. eigenvalues --    0.59301   0.59801   0.61427   0.61456   0.61702
 Alpha virt. eigenvalues --    0.61918   0.64799   0.65720   0.67819   0.68646
 Alpha virt. eigenvalues --    0.73040   0.73251   0.73873   0.75320   0.77627
 Alpha virt. eigenvalues --    0.77740   0.82891   0.85468   0.86505   0.87481
 Alpha virt. eigenvalues --    0.87593   0.87771   0.88732   0.88907   0.90197
 Alpha virt. eigenvalues --    0.90377   0.91530   0.92036   0.94455   0.95166
 Alpha virt. eigenvalues --    0.96580   0.97985   1.04775   1.05132   1.05635
 Alpha virt. eigenvalues --    1.09730   1.13791   1.16956   1.23690   1.24638
 Alpha virt. eigenvalues --    1.31531   1.32278   1.33067   1.33438   1.35348
 Alpha virt. eigenvalues --    1.36524   1.39806   1.40010   1.44076   1.46555
 Alpha virt. eigenvalues --    1.51968   1.52247   1.59662   1.67169   1.73152
 Alpha virt. eigenvalues --    1.77104   1.77524   1.83133   1.85400   1.85868
 Alpha virt. eigenvalues --    1.89014   1.90677   1.92906   1.93598   1.94795
 Alpha virt. eigenvalues --    2.00336   2.01134   2.01782   2.10225   2.12371
 Alpha virt. eigenvalues --    2.15320   2.17039   2.18019   2.23308   2.27221
 Alpha virt. eigenvalues --    2.27804   2.31440   2.31716   2.35495   2.36802
 Alpha virt. eigenvalues --    2.38479   2.39603   2.44873   2.48188   2.50916
 Alpha virt. eigenvalues --    2.51440   2.55517   2.63421   2.80866   2.81402
 Alpha virt. eigenvalues --    2.89401   2.93269   2.97101   2.99246   3.10364
 Alpha virt. eigenvalues --    3.10517   4.09673   4.10434   4.12252   4.15301
 Alpha virt. eigenvalues --    4.18663   4.27527   4.32601   4.38905   4.47191
 Alpha virt. eigenvalues --    4.54832
          Condensed to atoms (all electrons):
               1          2          3          4          5          6
     1  C    4.909803   0.362853   0.570720  -0.056531  -0.007920  -0.006172
     2  H    0.362853   0.618060  -0.055318   0.006247  -0.008029   0.005211
     3  C    0.570720  -0.055318   4.912365   0.363824   0.413461  -0.053995
     4  H   -0.056531   0.006247   0.363824   0.618670  -0.053994   0.005461
     5  C   -0.007920  -0.008029   0.413461  -0.053994   4.912367   0.363824
     6  H   -0.006172   0.005211  -0.053995   0.005461   0.363824   0.618672
     7  C    0.002427   0.000398  -0.007921  -0.006172   0.570719  -0.056531
     8  H    0.000398   0.000014  -0.008029   0.005211  -0.055318   0.006247
     9  C   -0.000222  -0.000002   0.003325   0.000258  -0.009572  -0.007790
    10  H   -0.000002   0.000001   0.000280   0.000009  -0.006359   0.005275
    11  C    0.000003  -0.000000  -0.000241  -0.000001   0.002921   0.000404
    12  H   -0.000000  -0.000000  -0.000000   0.000001   0.000463   0.000014
    13  C    0.426607  -0.053679  -0.009572  -0.007789   0.003325   0.000258
    14  H   -0.053323   0.005461  -0.006359   0.005275   0.000280   0.000009
    15  C   -0.017765  -0.006226   0.002921   0.000404  -0.000241  -0.000001
    16  H   -0.010464   0.005729   0.000463   0.000014  -0.000000   0.000001
    17  C   -0.000000   0.000000   0.000002  -0.000000  -0.000219  -0.000005
    18  H   -0.000000   0.000000  -0.000000   0.000000   0.000004   0.000000
    19  H   -0.000000   0.000000  -0.000000   0.000000   0.000004   0.000000
    20  H    0.000000  -0.000000   0.000000  -0.000000   0.000006   0.000000
    21  C    0.004231   0.000101  -0.000219  -0.000005   0.000002  -0.000000
    22  H   -0.000104  -0.000000   0.000004   0.000000  -0.000000   0.000000
    23  H    0.000189   0.000012   0.000006   0.000000   0.000000  -0.000000
    24  H   -0.000104  -0.000000   0.000004   0.000000  -0.000000   0.000000
               7          8          9         10         11         12
     1  C    0.002427   0.000398  -0.000222  -0.000002   0.000003  -0.000000
     2  H    0.000398   0.000014  -0.000002   0.000001  -0.000000  -0.000000
     3  C   -0.007921  -0.008029   0.003325   0.000280  -0.000241  -0.000000
     4  H   -0.006172   0.005211   0.000258   0.000009  -0.000001   0.000001
     5  C    0.570719  -0.055318  -0.009572  -0.006359   0.002921   0.000463
     6  H   -0.056531   0.006247  -0.007790   0.005275   0.000404   0.000014
     7  C    4.909800   0.362854   0.426607  -0.053323  -0.017763  -0.010464
     8  H    0.362854   0.618059  -0.053679   0.005461  -0.006226   0.005729
     9  C    0.426607  -0.053679   4.808843   0.361202   0.642452  -0.046631
    10  H   -0.053323   0.005461   0.361202   0.621674  -0.054121   0.006644
    11  C   -0.017763  -0.006226   0.642452  -0.054121   4.908753   0.364757
    12  H   -0.010464   0.005729  -0.046631   0.006644   0.364757   0.610000
    13  C   -0.000222  -0.000002   0.000001  -0.000000  -0.000000   0.000000
    14  H   -0.000002   0.000001  -0.000000  -0.000000   0.000000  -0.000000
    15  C    0.000003  -0.000000  -0.000000   0.000000  -0.000000   0.000000
    16  H   -0.000000  -0.000000   0.000000  -0.000000   0.000000   0.000000
    17  C    0.004231   0.000101  -0.017618  -0.009873   0.363439  -0.057109
    18  H   -0.000104  -0.000000  -0.000969   0.000118  -0.030793  -0.000703
    19  H   -0.000104  -0.000000  -0.000967   0.000118  -0.030795  -0.000706
    20  H    0.000189   0.000012  -0.005543   0.006624  -0.035885   0.004638
    21  C   -0.000000   0.000000   0.000000   0.000000  -0.000000  -0.000000
    22  H   -0.000000   0.000000  -0.000000  -0.000000   0.000000   0.000000
    23  H    0.000000  -0.000000   0.000000   0.000000  -0.000000   0.000000
    24  H   -0.000000   0.000000  -0.000000  -0.000000   0.000000   0.000000
              13         14         15         16         17         18
     1  C    0.426607  -0.053323  -0.017765  -0.010464  -0.000000  -0.000000
     2  H   -0.053679   0.005461  -0.006226   0.005729   0.000000   0.000000
     3  C   -0.009572  -0.006359   0.002921   0.000463   0.000002  -0.000000
     4  H   -0.007789   0.005275   0.000404   0.000014  -0.000000   0.000000
     5  C    0.003325   0.000280  -0.000241  -0.000000  -0.000219   0.000004
     6  H    0.000258   0.000009  -0.000001   0.000001  -0.000005   0.000000
     7  C   -0.000222  -0.000002   0.000003  -0.000000   0.004231  -0.000104
     8  H   -0.000002   0.000001  -0.000000  -0.000000   0.000101  -0.000000
     9  C    0.000001  -0.000000  -0.000000   0.000000  -0.017618  -0.000969
    10  H   -0.000000  -0.000000   0.000000  -0.000000  -0.009873   0.000118
    11  C   -0.000000   0.000000  -0.000000   0.000000   0.363439  -0.030793
    12  H    0.000000  -0.000000   0.000000   0.000000  -0.057109  -0.000703
    13  C    4.808847   0.361202   0.642450  -0.046631   0.000000  -0.000000
    14  H    0.361202   0.621674  -0.054121   0.006644   0.000000  -0.000000
    15  C    0.642450  -0.054121   4.908755   0.364756  -0.000000   0.000000
    16  H   -0.046631   0.006644   0.364756   0.609994  -0.000000   0.000000
    17  C    0.000000   0.000000  -0.000000  -0.000000   5.099640   0.366899
    18  H   -0.000000  -0.000000   0.000000   0.000000   0.366899   0.573266
    19  H   -0.000000  -0.000000   0.000000   0.000000   0.366899  -0.037153
    20  H    0.000000   0.000000  -0.000000   0.000000   0.373853  -0.028179
    21  C   -0.017617  -0.009873   0.363437  -0.057105   0.000000  -0.000000
    22  H   -0.000961   0.000118  -0.030786  -0.000709  -0.000000   0.000000
    23  H   -0.005542   0.006624  -0.035883   0.004637   0.000000  -0.000000
    24  H   -0.000976   0.000118  -0.030800  -0.000699  -0.000000  -0.000000
              19         20         21         22         23         24
     1  C   -0.000000   0.000000   0.004231  -0.000104   0.000189  -0.000104
     2  H    0.000000  -0.000000   0.000101  -0.000000   0.000012  -0.000000
     3  C   -0.000000   0.000000  -0.000219   0.000004   0.000006   0.000004
     4  H    0.000000  -0.000000  -0.000005   0.000000   0.000000   0.000000
     5  C    0.000004   0.000006   0.000002  -0.000000   0.000000  -0.000000
     6  H    0.000000   0.000000  -0.000000   0.000000  -0.000000   0.000000
     7  C   -0.000104   0.000189  -0.000000  -0.000000   0.000000  -0.000000
     8  H   -0.000000   0.000012   0.000000   0.000000  -0.000000   0.000000
     9  C   -0.000967  -0.005543   0.000000  -0.000000   0.000000  -0.000000
    10  H    0.000118   0.006624   0.000000  -0.000000   0.000000  -0.000000
    11  C   -0.030795  -0.035885  -0.000000   0.000000  -0.000000   0.000000
    12  H   -0.000706   0.004638  -0.000000   0.000000   0.000000   0.000000
    13  C   -0.000000   0.000000  -0.017617  -0.000961  -0.005542  -0.000976
    14  H   -0.000000   0.000000  -0.009873   0.000118   0.006624   0.000118
    15  C    0.000000  -0.000000   0.363437  -0.030786  -0.035883  -0.030800
    16  H    0.000000   0.000000  -0.057105  -0.000709   0.004637  -0.000699
    17  C    0.366899   0.373853   0.000000  -0.000000   0.000000  -0.000000
    18  H   -0.037153  -0.028179  -0.000000   0.000000  -0.000000  -0.000000
    19  H    0.573283  -0.028183  -0.000000  -0.000000  -0.000000   0.000000
    20  H   -0.028183   0.558431   0.000000  -0.000000   0.000000  -0.000000
    21  C   -0.000000   0.000000   5.099639   0.366901   0.373854   0.366897
    22  H   -0.000000  -0.000000   0.366901   0.573273  -0.028182  -0.037152
    23  H   -0.000000   0.000000   0.373854  -0.028182   0.558431  -0.028183
    24  H    0.000000  -0.000000   0.366897  -0.037152  -0.028183   0.573278
 Mulliken charges:
               1
     1  C   -0.124624
     2  H    0.119168
     3  C   -0.125718
     4  H    0.119119
     5  C   -0.125722
     6  H    0.119118
     7  C   -0.124621
     8  H    0.119168
     9  C   -0.099696
    10  H    0.116273
    11  C   -0.106903
    12  H    0.123368
    13  C   -0.099698
    14  H    0.116273
    15  C   -0.106904
    16  H    0.123370
    17  C   -0.490239
    18  H    0.157615
    19  H    0.157604
    20  H    0.154036
    21  C   -0.490242
    22  H    0.157600
    23  H    0.154037
    24  H    0.157618
 Sum of Mulliken charges =  -0.00000
 Mulliken charges with hydrogens summed into heavy atoms:
               1
     1  C   -0.005456
     3  C   -0.006599
     5  C   -0.006604
     7  C   -0.005453
     9  C    0.016576
    11  C    0.016464
    13  C    0.016575
    15  C    0.016466
    17  C   -0.020984
    21  C   -0.020986
 Electronic spatial extent (au):  <R**2>=           3984.2768
 Charge=             -0.0000 electrons
 Dipole moment (field-independent basis, Debye):
    X=              0.0000    Y=             -0.0000    Z=              0.0003  Tot=              0.0003
 Quadrupole moment (field-independent basis, Debye-Ang):
   XX=            -50.7228   YY=            -57.0633   ZZ=            -66.2173
   XY=             -0.7629   XZ=             -0.0005   YZ=              0.0001
 Traceless Quadrupole moment (field-independent basis, Debye-Ang):
   XX=              7.2783   YY=              0.9379   ZZ=             -8.2162
   XY=             -0.7629   XZ=             -0.0005   YZ=              0.0001
 Octapole moment (field-independent basis, Debye-Ang**2):
  XXX=              0.0010  YYY=              0.0001  ZZZ=              0.0034  XYY=             -0.0001
  XXY=             -0.0015  XXZ=              0.0073  XZZ=              0.0002  YZZ=             -0.0001
  YYZ=             -0.0012  XYZ=             -0.0008
 Hexadecapole moment (field-independent basis, Debye-Ang**3):
 XXXX=          -4827.9338 YYYY=           -169.6857 ZZZZ=            -81.8963 XXXY=            -35.5768
 XXXZ=             -0.0080 YYYX=              1.0279 YYYZ=              0.0012 ZZZX=             -0.0093
 ZZZY=             -0.0003 XXYY=           -870.8486 XXZZ=           -910.0957 YYZZ=            -46.3097
 XXYZ=             -0.0051 YYXZ=              0.0057 ZZXY=             -2.1023
 N-N= 4.278104327785D+02 E-N=-1.755800656865D+03  KE= 3.855042567800D+02
 No NMR shielding tensors so no spin-rotation constants.
 Leave Link  601 at Sun Jun  6 13:10:32 2021, MaxMem=    33554432 cpu:         0.1
 (Enter /opt/app/gaussian09/e01/g09/l9999.exe)
 1\1\GINC-NB-0525\FOpt\RB3LYP\6-31G(d)\C10H14\ROOT\06-Jun-2021\0\\#p op
 t b3lyp/6-31g(d) geom=connectivity int=ultrafine\\Title Card Required\
 \0,1\C,-1.3026661494,-1.6543577845,0.0757661638\H,-2.3921364616,-1.692
 2887623,0.1224469323\C,-0.69119046,-0.4435552289,0.0883736441\H,0.3984
 196358,-0.4069746764,0.0417908267\C,-1.3804416904,0.8191837557,0.15994
 5361\H,-2.4700470758,0.7825912268,0.2066458036\C,-0.7689728868,2.02998
 33488,0.1728376021\H,0.3205022295,2.0679403696,0.126300578\C,-1.462057
 7664,3.297212715,0.2448908513\H,-2.5518871332,3.2558459179,0.291370024
 9\C,-0.8563093938,4.500157727,0.2576522775\H,0.233489722,4.5350788541,
 0.2109733947\C,-0.6095914681,-2.9216137461,0.0040590314\H,0.4802334616
 ,-2.8802622004,-0.0426039139\C,-1.2153490301,-4.1245584086,-0.00860036
 84\H,-2.3051431116,-4.1594641419,0.0381551859\C,-1.5610667818,5.820421
 3391,0.3318180105\H,-1.2492675628,6.3910108414,1.218032497\H,-1.326169
 8181,6.4485987706,-0.5390669781\H,-2.6483124355,5.6954766745,0.3752691
 418\C,-0.5105417822,-5.4448237172,-0.0825659383\H,-0.8230795264,-6.015
 9776564,-0.9681576751\H,0.5766552037,-5.3198374754,-0.127085616\H,-0.7
 445971682,-6.0724965923,0.7889054732\\Version=ES64L-G09RevE.01\State=1
 -A\HF=-389.4459456\RMSD=7.378e-09\RMSF=6.559e-06\Dipole=0.0000111,0.00
 00148,0.0001285\Quadrupole=0.6352857,5.4487894,-6.0840751,0.3064835,-0
 .2861484,0.3640106\PG=C01 [X(C10H14)]\\@


 Human beings, who are almost unique in having the
 ability to learn from the experience of others, are
 also remarkable for their apparent disinclination to do so.
                               -- Douglas Adams,
                                Last Chance to See
 Job cpu time:       0 days  0 hours 49 minutes  4.7 seconds.
 File lengths (MBytes):  RWF=     22 Int=      0 D2E=      0 Chk=      4 Scr=      1
 Normal termination of Gaussian 09 at Sun Jun  6 13:10:32 2021.
