 Entering Gaussian System, Link 0=/opt/app/gaussian09/e01/g09/g09.exec
 Input=mini_4_pp_td.gjf
 Output=mini_4_pp_td.log
 Initial command:
 /opt/app/gaussian09/e01/g09/l1.exe "./Gau-53538.inp" -scrdir="./"
 Entering Link 1 = /opt/app/gaussian09/e01/g09/l1.exe PID=     53541.
  
 Copyright (c) 1988,1990,1992,1993,1995,1998,2003,2009,2015,
            Gaussian, Inc.  All Rights Reserved.
  
 This is part of the Gaussian(R) 09 program.  It is based on
 the Gaussian(R) 03 system (copyright 2003, Gaussian, Inc.),
 the Gaussian(R) 98 system (copyright 1998, Gaussian, Inc.),
 the Gaussian(R) 94 system (copyright 1995, Gaussian, Inc.),
 the Gaussian 92(TM) system (copyright 1992, Gaussian, Inc.),
 the Gaussian 90(TM) system (copyright 1990, Gaussian, Inc.),
 the Gaussian 88(TM) system (copyright 1988, Gaussian, Inc.),
 the Gaussian 86(TM) system (copyright 1986, Carnegie Mellon
 University), and the Gaussian 82(TM) system (copyright 1983,
 Carnegie Mellon University). Gaussian is a federally registered
 trademark of Gaussian, Inc.
  
 This software contains proprietary and confidential information,
 including trade secrets, belonging to Gaussian, Inc.
  
 This software is provided under written license and may be
 used, copied, transmitted, or stored only in accord with that
 written license.
  
 The following legend is applicable only to US Government
 contracts under FAR:
  
                    RESTRICTED RIGHTS LEGEND
  
 Use, reproduction and disclosure by the US Government is
 subject to restrictions as set forth in subparagraphs (a)
 and (c) of the Commercial Computer Software - Restricted
 Rights clause in FAR 52.227-19.
  
 Gaussian, Inc.
 340 Quinnipiac St., Bldg. 40, Wallingford CT 06492
  
  
 ---------------------------------------------------------------
 Warning -- This program may not be used in any manner that
 competes with the business of Gaussian, Inc. or will provide
 assistance to any competitor of Gaussian, Inc.  The licensee
 of this program is prohibited from giving any competitor of
 Gaussian, Inc. access to this program.  By using this program,
 the user acknowledges that Gaussian, Inc. is engaged in the
 business of creating and licensing software in the field of
 computational chemistry and represents and warrants to the
 licensee that it is not a competitor of Gaussian, Inc. and that
 it will not use this program in any manner prohibited above.
 ---------------------------------------------------------------
  

 Cite this work as:
 Gaussian 09, Revision E.01,
 M. J. Frisch, G. W. Trucks, H. B. Schlegel, G. E. Scuseria, 
 M. A. Robb, J. R. Cheeseman, G. Scalmani, V. Barone, B. Mennucci, 
 G. A. Petersson, H. Nakatsuji, M. Caricato, X. Li, H. P. Hratchian, 
 A. F. Izmaylov, J. Bloino, G. Zheng, J. L. Sonnenberg, M. Hada, 
 M. Ehara, K. Toyota, R. Fukuda, J. Hasegawa, M. Ishida, T. Nakajima, 
 Y. Honda, O. Kitao, H. Nakai, T. Vreven, J. A. Montgomery, Jr., 
 J. E. Peralta, F. Ogliaro, M. Bearpark, J. J. Heyd, E. Brothers, 
 K. N. Kudin, V. N. Staroverov, T. Keith, R. Kobayashi, J. Normand, 
 K. Raghavachari, A. Rendell, J. C. Burant, S. S. Iyengar, J. Tomasi, 
 M. Cossi, N. Rega, J. M. Millam, M. Klene, J. E. Knox, J. B. Cross, 
 V. Bakken, C. Adamo, J. Jaramillo, R. Gomperts, R. E. Stratmann, 
 O. Yazyev, A. J. Austin, R. Cammi, C. Pomelli, J. W. Ochterski, 
 R. L. Martin, K. Morokuma, V. G. Zakrzewski, G. A. Voth, 
 P. Salvador, J. J. Dannenberg, S. Dapprich, A. D. Daniels, 
 O. Farkas, J. B. Foresman, J. V. Ortiz, J. Cioslowski, 
 and D. J. Fox, Gaussian, Inc., Wallingford CT, 2013.
 
 ******************************************
 Gaussian 09:  ES64L-G09RevE.01 30-Nov-2015
                 6-Jun-2021 
 ******************************************
 %chk=mini_4_pp_td.chk
 ------------------------------------------------
 #p td(NStates=10) b3lyp/6-31g(d) nosymm pop=full
 ------------------------------------------------
 1/38=1/1;
 2/12=2,15=1,17=6,18=5,40=1/2;
 3/5=1,6=6,7=1,11=9,16=1,25=1,30=1,74=-5/1,2,8,3;
 4//1;
 5/5=2,38=5/2;
 8/6=1,10=2,108=10/1;
 9/41=10,42=1,70=2/14;
 6/7=3/1;
 99/5=1,9=1/99;
 Leave Link    1 at Sun Jun  6 19:37:58 2021, MaxMem=           0 cpu:         0.0
 (Enter /opt/app/gaussian09/e01/g09/l101.exe)
 -------------------
 Title Card Required
 -------------------
 Symbolic Z-matrix:
 Charge =  0 Multiplicity = 1
 C                    -1.8247    0.37095  -0.00016 
 H                    -1.79932   1.46178  -0.00008 
 C                    -0.65071  -0.30864  -0.00028 
 H                    -0.67744  -1.39954  -0.00022 
 C                     0.65071   0.30862  -0.00026 
 H                     0.67743   1.39951  -0.00021 
 C                     1.82471  -0.37095  -0.00011 
 H                     1.79936  -1.46179  -0.00004 
 C                     3.13084   0.24989   0.00008 
 H                     3.15281   1.34128   0.00006 
 C                     4.29732  -0.42352   0.00011 
 H                     4.26892  -1.51451   0.00015 
 C                    -3.13085  -0.24987   0. 
 H                    -3.15283  -1.34126  -0.00016 
 C                    -4.29733   0.42355   0.00007 
 H                    -4.26891   1.51454   0.00011 
 C                     5.65711   0.20598   0.00017 
 H                     6.23991  -0.10097   0.8801 
 H                     6.24004  -0.10123  -0.87962 
 H                     5.59543   1.29951  -0.00004 
 C                    -5.65711  -0.20599   0.00022 
 H                    -6.24041   0.10176  -0.87911 
 H                    -5.59542  -1.29951  -0.00065 
 H                    -6.23956   0.10038   0.88062 
 
 NAtoms=     24 NQM=       24 NQMF=       0 NMMI=      0 NMMIF=      0
                NMic=       0 NMicF=      0.
                    Isotopes and Nuclear Properties:
 (Nuclear quadrupole moments (NQMom) in fm**2, nuclear magnetic moments (NMagM)
  in nuclear magnetons)

  Atom         1           2           3           4           5           6           7           8           9          10
 IAtWgt=          12           1          12           1          12           1          12           1          12           1
 AtmWgt=  12.0000000   1.0078250  12.0000000   1.0078250  12.0000000   1.0078250  12.0000000   1.0078250  12.0000000   1.0078250
 NucSpn=           0           1           0           1           0           1           0           1           0           1
 AtZEff=   0.0000000   0.0000000   0.0000000   0.0000000   0.0000000   0.0000000   0.0000000   0.0000000   0.0000000   0.0000000
 NQMom=    0.0000000   0.0000000   0.0000000   0.0000000   0.0000000   0.0000000   0.0000000   0.0000000   0.0000000   0.0000000
 NMagM=    0.0000000   2.7928460   0.0000000   2.7928460   0.0000000   2.7928460   0.0000000   2.7928460   0.0000000   2.7928460
 AtZNuc=   6.0000000   1.0000000   6.0000000   1.0000000   6.0000000   1.0000000   6.0000000   1.0000000   6.0000000   1.0000000

  Atom        11          12          13          14          15          16          17          18          19          20
 IAtWgt=          12           1          12           1          12           1          12           1           1           1
 AtmWgt=  12.0000000   1.0078250  12.0000000   1.0078250  12.0000000   1.0078250  12.0000000   1.0078250   1.0078250   1.0078250
 NucSpn=           0           1           0           1           0           1           0           1           1           1
 AtZEff=   0.0000000   0.0000000   0.0000000   0.0000000   0.0000000   0.0000000   0.0000000   0.0000000   0.0000000   0.0000000
 NQMom=    0.0000000   0.0000000   0.0000000   0.0000000   0.0000000   0.0000000   0.0000000   0.0000000   0.0000000   0.0000000
 NMagM=    0.0000000   2.7928460   0.0000000   2.7928460   0.0000000   2.7928460   0.0000000   2.7928460   2.7928460   2.7928460
 AtZNuc=   6.0000000   1.0000000   6.0000000   1.0000000   6.0000000   1.0000000   6.0000000   1.0000000   1.0000000   1.0000000

  Atom        21          22          23          24
 IAtWgt=          12           1           1           1
 AtmWgt=  12.0000000   1.0078250   1.0078250   1.0078250
 NucSpn=           0           1           1           1
 AtZEff=   0.0000000   0.0000000   0.0000000   0.0000000
 NQMom=    0.0000000   0.0000000   0.0000000   0.0000000
 NMagM=    0.0000000   2.7928460   2.7928460   2.7928460
 AtZNuc=   6.0000000   1.0000000   1.0000000   1.0000000
 Leave Link  101 at Sun Jun  6 19:37:58 2021, MaxMem=    33554432 cpu:         0.1
 (Enter /opt/app/gaussian09/e01/g09/l202.exe)
                          Input orientation:                          
 ---------------------------------------------------------------------
 Center     Atomic      Atomic             Coordinates (Angstroms)
 Number     Number       Type             X           Y           Z
 ---------------------------------------------------------------------
      1          6           0       -1.824702    0.370946   -0.000156
      2          1           0       -1.799321    1.461780   -0.000075
      3          6           0       -0.650709   -0.308644   -0.000284
      4          1           0       -0.677442   -1.399536   -0.000218
      5          6           0        0.650709    0.308618   -0.000262
      6          1           0        0.677433    1.399511   -0.000211
      7          6           0        1.824710   -0.370953   -0.000106
      8          1           0        1.799359   -1.461787   -0.000044
      9          6           0        3.130841    0.249894    0.000082
     10          1           0        3.152807    1.341277    0.000059
     11          6           0        4.297324   -0.423522    0.000113
     12          1           0        4.268921   -1.514510    0.000147
     13          6           0       -3.130847   -0.249874    0.000001
     14          1           0       -3.152835   -1.341260   -0.000158
     15          6           0       -4.297326    0.423555    0.000072
     16          1           0       -4.268905    1.514540    0.000115
     17          6           0        5.657106    0.205980    0.000168
     18          1           0        6.239914   -0.100972    0.880101
     19          1           0        6.240040   -0.101233   -0.879623
     20          1           0        5.595427    1.299506   -0.000037
     21          6           0       -5.657105   -0.205989    0.000219
     22          1           0       -6.240413    0.101758   -0.879106
     23          1           0       -5.595420   -1.299513   -0.000646
     24          1           0       -6.239563    0.100380    0.880616
 ---------------------------------------------------------------------
                    Distance matrix (angstroms):
                    1          2          3          4          5
     1  C    0.000000
     2  H    1.091130   0.000000
     3  C    1.356505   2.110383   0.000000
     4  H    2.109695   3.073393   1.091219   0.000000
     5  C    2.476195   2.707846   1.440382   2.163741   0.000000
     6  H    2.705297   2.477537   2.163736   3.109718   1.091220
     7  C    3.724060   4.061097   2.476202   2.705318   1.356501
     8  H    4.061125   4.636567   2.707872   2.477583   2.110388
     9  C    4.957022   5.076925   3.822575   4.150136   2.480828
    10  H    5.071207   4.953594   4.145958   4.709868   2.706821
    11  C    6.173361   6.381492   4.949366   5.069605   3.719386
    12  H    6.378651   6.758836   5.065261   4.947699   4.051575
    13  C    1.446179   2.168576   2.480835   2.709413   3.822575
    14  H    2.166930   3.112721   2.706830   2.476079   4.145967
    15  C    2.473183   2.705169   3.719400   4.053051   4.949369
    16  H    2.698506   2.470147   4.051586   4.624981   5.065259
    17  C    7.483626   7.561437   6.328772   6.534843   5.007449
    18  H    8.126229   8.236880   6.949740   7.093027   5.672920
    19  H    8.126284   8.236986   6.949725   7.092989   5.672908
    20  H    7.478004   7.396528   6.449834   6.828887   5.043025
    21  C    3.875586   4.202850   5.007449   5.120703   6.328770
    22  H    4.510378   4.727118   5.673231   5.828634   6.950015
    23  H    4.124166   4.694156   5.043014   4.918995   6.449822
    24  H    4.509985   4.727026   5.672617   5.827762   6.949472
                    6          7          8          9         10
     6  H    0.000000
     7  C    2.109688   0.000000
     8  H    3.073393   1.091129   0.000000
     9  C    2.709396   1.446177   2.168570   0.000000
    10  H    2.476059   2.166927   3.112714   1.091604   0.000000
    11  C    4.053030   2.473173   2.705147   1.346912   2.103434
    12  H    4.624965   2.698498   2.470124   2.099606   3.066142
    13  C    4.150117   4.957036   5.076975   6.281601   6.481981
    14  H    4.709860   5.071237   4.953661   6.482002   6.852527
    15  C    5.069588   6.173375   6.381543   7.430196   7.506443
    16  H    4.947676   6.378654   6.758872   7.507035   7.423734
    17  C    5.120708   3.875579   4.202815   2.526646   2.749620
    18  H    5.828171   4.510175   4.727050   3.250211   3.519202
    19  H    5.828224   4.510149   4.726988   3.250276   3.519330
    20  H    4.919010   4.124165   4.694131   2.678781   2.442977
    21  C    6.534830   7.483633   7.561474   8.799763   8.944752
    22  H    7.093181   8.126641   8.237436   9.413570   9.515351
    23  H    6.828866   7.478004   7.396559   8.862747   9.138120
    24  H    7.092844   8.125905   8.236517   9.412872   9.514821
                   11         12         13         14         15
    11  C    0.000000
    12  H    1.091357   0.000000
    13  C    7.430201   7.507055   0.000000
    14  H    7.506471   7.423778   1.091607   0.000000
    15  C    8.636292   8.782749   1.346914   2.103433   0.000000
    16  H    8.782731   9.059228   2.099603   3.066138   1.091355
    17  C    1.498426   2.210688   8.799768   8.944775   9.956809
    18  H    2.156866   2.580159   9.413177   9.515088  10.586926
    19  H    2.156839   2.580050   9.413255   9.515105  10.587037
    20  H    2.157289   3.110997   8.862756   9.138147   9.931457
    21  C    9.956805  10.011904   2.526639   2.749584   1.498441
    22  H   10.587390  10.669185   3.250519   3.519657   2.156871
    23  H    9.931452   9.866683   2.678779   2.442941   2.157316
    24  H   10.586583  10.668239   3.249965   3.518804   2.156870
                   16         17         18         19         20
    16  H    0.000000
    17  C   10.011894   0.000000
    18  H   10.668623   1.099167   0.000000
    19  H   10.668767   1.099193   1.759724   0.000000
    20  H    9.866675   1.095264   1.775203   1.775180   0.000000
    21  C    2.210728  11.321708  11.929974  11.930095  11.352797
    22  H    2.579888  11.930420  12.605334  12.482103  11.928724
    23  H    3.111034  11.352790  11.928425  11.928394  11.488688
    24  H    2.580431  11.929672  12.481101  12.604745  11.928137
                   21         22         23         24
    21  C    0.000000
    22  H    1.099168   0.000000
    23  H    1.095263   1.775182   0.000000
    24  H    1.099190   1.759723   1.775174   0.000000
 Symmetry turned off by external request.
 Stoichiometry    C10H14
 Framework group  C1[X(C10H14)]
 Deg. of freedom    66
 Full point group                 C1      NOp   1
 Rotational constants (GHZ):     14.2473865      0.2770679      0.2726979
 Leave Link  202 at Sun Jun  6 19:37:58 2021, MaxMem=    33554432 cpu:         0.0
 (Enter /opt/app/gaussian09/e01/g09/l301.exe)
 Standard basis: 6-31G(d) (6D, 7F)
 Ernie: Thresh=  0.10000D-02 Tol=  0.10000D-05 Strict=F.
   178 basis functions,   336 primitive gaussians,   178 cartesian basis functions
    37 alpha electrons       37 beta electrons
       nuclear repulsion energy       427.8104001570 Hartrees.
 IExCor=  402 DFT=T Ex+Corr=B3LYP ExCW=0 ScaHFX=  0.200000
 ScaDFX=  0.800000  0.720000  1.000000  0.810000 ScalE2=  1.000000  1.000000
 IRadAn=      0 IRanWt=     -1 IRanGd=            0 ICorTp=0 IEmpDi=  4
 NAtoms=   24 NActive=   24 NUniq=   24 SFac= 1.00D+00 NAtFMM=   60 NAOKFM=F Big=F
 Integral buffers will be    131072 words long.
 Regular integral format.
 Two-electron integral symmetry is turned off.
 Leave Link  301 at Sun Jun  6 19:37:58 2021, MaxMem=    33554432 cpu:         0.0
 (Enter /opt/app/gaussian09/e01/g09/l302.exe)
 NPDir=0 NMtPBC=     1 NCelOv=     1 NCel=       1 NClECP=     1 NCelD=      1
         NCelK=      1 NCelE2=     1 NClLst=     1 CellRange=     0.0.
 One-electron integrals computed using PRISM.
 NBasis=   178 RedAO= T EigKep=  1.79D-03  NBF=   178
 NBsUse=   178 1.00D-06 EigRej= -1.00D+00 NBFU=   178
 Precomputing XC quadrature grid using
 IXCGrd= 4 IRadAn=           0 IRanWt=          -1 IRanGd=           0 AccXCQ= 0.00D+00.
 Generated NRdTot=       0 NPtTot=           0 NUsed=           0 NTot=          32
 NSgBfM=   176   176   176   176   176 MxSgAt=    24 MxSgA2=    24.
 Leave Link  302 at Sun Jun  6 19:37:59 2021, MaxMem=    33554432 cpu:         0.5
 (Enter /opt/app/gaussian09/e01/g09/l308.exe)
 Leave Link  308 at Sun Jun  6 19:37:59 2021, MaxMem=    33554432 cpu:         0.0
 (Enter /opt/app/gaussian09/e01/g09/l303.exe)
 DipDrv:  MaxL=1.
 Leave Link  303 at Sun Jun  6 19:37:59 2021, MaxMem=    33554432 cpu:         0.0
 (Enter /opt/app/gaussian09/e01/g09/l401.exe)
 ExpMin= 1.61D-01 ExpMax= 3.05D+03 ExpMxC= 4.57D+02 IAcc=1 IRadAn=         1 AccDes= 0.00D+00
 Harris functional with IExCor=  402 and IRadAn=       1 diagonalized for initial guess.
 HarFok:  IExCor=  402 AccDes= 0.00D+00 IRadAn=         1 IDoV= 1 UseB2=F ITyADJ=14
 ICtDFT=  3500011 ScaDFX=  1.000000  1.000000  1.000000  1.000000
 FoFCou: FMM=F IPFlag=           0 FMFlag=      100000 FMFlg1=           0
         NFxFlg=           0 DoJE=T BraDBF=F KetDBF=T FulRan=T
         wScrn=  0.000000 ICntrl=     500 IOpCl=  0 I1Cent=   200000004 NGrid=           0
         NMat0=    1 NMatS0=      1 NMatT0=    0 NMatD0=    1 NMtDS0=    0 NMtDT0=    0
 Symmetry not used in FoFCou.
 Harris En= -389.533112355860    
 JPrj=0 DoOrth=F DoCkMO=F.
 Leave Link  401 at Sun Jun  6 19:38:01 2021, MaxMem=    33554432 cpu:         1.6
 (Enter /opt/app/gaussian09/e01/g09/l502.exe)
 Closed shell SCF:
 Using DIIS extrapolation, IDIIS=  1040.
 Two-electron integral symmetry not used.
 IVT=      115786 IEndB=      115786 NGot=    33554432 MDV=    33487149
 LenX=    33487149 LenY=    33455024
 Requested convergence on RMS density matrix=1.00D-08 within 128 cycles.
 Requested convergence on MAX density matrix=1.00D-06.
 Requested convergence on             energy=1.00D-06.
 No special actions if energy rises.
 Fock matrices will be formed incrementally for  20 cycles.
 Integral accuracy reduced to 1.0D-05 until final iterations.

 Cycle   1  Pass 0  IDiag  1:
 FoFJK:  IHMeth= 1 ICntrl=       0 DoSepK=F KAlg= 0 I1Cent=   0 FoldK=F
 IRaf= 740000000 NMat=   1 IRICut=       1 DoRegI=T DoRafI=F ISym2E= 0.
 FoFCou: FMM=F IPFlag=           0 FMFlag=      100000 FMFlg1=           0
         NFxFlg=           0 DoJE=F BraDBF=F KetDBF=F FulRan=T
         wScrn=  0.000000 ICntrl=       0 IOpCl=  0 I1Cent=           0 NGrid=           0
         NMat0=    1 NMatS0=      1 NMatT0=    0 NMatD0=    1 NMtDS0=    0 NMtDT0=    0
 Symmetry not used in FoFCou.
 E= -389.129607650910    
 DIIS: error= 4.91D-02 at cycle   1 NSaved=   1.
 NSaved= 1 IEnMin= 1 EnMin= -389.129607650910     IErMin= 1 ErrMin= 4.91D-02
 ErrMax= 4.91D-02  0.00D+00 EMaxC= 1.00D-01 BMatC= 2.75D-01 BMatP= 2.75D-01
 IDIUse=3 WtCom= 5.09D-01 WtEn= 4.91D-01
 Coeff-Com:  0.100D+01
 Coeff-En:   0.100D+01
 Coeff:      0.100D+01
 Gap=     0.134 Goal=   None    Shift=    0.000
 GapD=    0.134 DampG=1.000 DampE=0.500 DampFc=0.5000 IDamp=-1.
 Damping current iteration by 5.00D-01
 RMSDP=6.65D-03 MaxDP=1.32D-01              OVMax= 1.63D-01

 Cycle   2  Pass 0  IDiag  1:
 RMSU=  3.25D-03    CP:  9.70D-01
 E= -389.286462047657     Delta-E=       -0.156854396747 Rises=F Damp=T
 DIIS: error= 8.06D-03 at cycle   2 NSaved=   2.
 NSaved= 2 IEnMin= 2 EnMin= -389.286462047657     IErMin= 2 ErrMin= 8.06D-03
 ErrMax= 8.06D-03  0.00D+00 EMaxC= 1.00D-01 BMatC= 9.72D-03 BMatP= 2.75D-01
 IDIUse=3 WtCom= 9.19D-01 WtEn= 8.06D-02
 Coeff-Com: -0.157D-01 0.102D+01
 Coeff-En:   0.000D+00 0.100D+01
 Coeff:     -0.144D-01 0.101D+01
 Gap=     0.136 Goal=   None    Shift=    0.000
 RMSDP=1.11D-03 MaxDP=1.40D-02 DE=-1.57D-01 OVMax= 8.66D-02

 Cycle   3  Pass 0  IDiag  1:
 RMSU=  1.08D-03    CP:  9.65D-01  9.26D-01
 E= -389.444988567960     Delta-E=       -0.158526520303 Rises=F Damp=F
 DIIS: error= 2.00D-03 at cycle   3 NSaved=   3.
 NSaved= 3 IEnMin= 3 EnMin= -389.444988567960     IErMin= 3 ErrMin= 2.00D-03
 ErrMax= 2.00D-03  0.00D+00 EMaxC= 1.00D-01 BMatC= 8.87D-04 BMatP= 9.72D-03
 IDIUse=3 WtCom= 9.80D-01 WtEn= 2.00D-02
 Coeff-Com: -0.245D-01 0.172D+00 0.852D+00
 Coeff-En:   0.000D+00 0.000D+00 0.100D+01
 Coeff:     -0.240D-01 0.169D+00 0.855D+00
 Gap=     0.136 Goal=   None    Shift=    0.000
 RMSDP=2.47D-04 MaxDP=5.96D-03 DE=-1.59D-01 OVMax= 1.19D-02

 Cycle   4  Pass 0  IDiag  1:
 RMSU=  2.27D-04    CP:  9.65D-01  9.42D-01  9.25D-01
 E= -389.445460945769     Delta-E=       -0.000472377809 Rises=F Damp=F
 DIIS: error= 1.29D-03 at cycle   4 NSaved=   4.
 NSaved= 4 IEnMin= 4 EnMin= -389.445460945769     IErMin= 4 ErrMin= 1.29D-03
 ErrMax= 1.29D-03  0.00D+00 EMaxC= 1.00D-01 BMatC= 4.26D-04 BMatP= 8.87D-04
 IDIUse=3 WtCom= 9.87D-01 WtEn= 1.29D-02
 Coeff-Com: -0.105D-01 0.406D-01 0.441D+00 0.529D+00
 Coeff-En:   0.000D+00 0.000D+00 0.300D+00 0.700D+00
 Coeff:     -0.103D-01 0.401D-01 0.439D+00 0.531D+00
 Gap=     0.136 Goal=   None    Shift=    0.000
 RMSDP=1.18D-04 MaxDP=4.18D-03 DE=-4.72D-04 OVMax= 6.98D-03

 Cycle   5  Pass 0  IDiag  1:
 RMSU=  6.59D-05    CP:  9.65D-01  9.46D-01  9.39D-01  5.81D-01
 E= -389.445841373857     Delta-E=       -0.000380428088 Rises=F Damp=F
 DIIS: error= 4.72D-04 at cycle   5 NSaved=   5.
 NSaved= 5 IEnMin= 5 EnMin= -389.445841373857     IErMin= 5 ErrMin= 4.72D-04
 ErrMax= 4.72D-04  0.00D+00 EMaxC= 1.00D-01 BMatC= 3.38D-05 BMatP= 4.26D-04
 IDIUse=3 WtCom= 9.95D-01 WtEn= 4.72D-03
 Coeff-Com: -0.386D-02 0.104D-01 0.188D+00 0.290D+00 0.516D+00
 Coeff-En:   0.000D+00 0.000D+00 0.000D+00 0.000D+00 0.100D+01
 Coeff:     -0.385D-02 0.104D-01 0.187D+00 0.289D+00 0.518D+00
 Gap=     0.136 Goal=   None    Shift=    0.000
 RMSDP=4.30D-05 MaxDP=1.49D-03 DE=-3.80D-04 OVMax= 3.55D-03

 Cycle   6  Pass 0  IDiag  1:
 RMSU=  2.97D-05    CP:  9.65D-01  9.46D-01  9.40D-01  6.10D-01  5.40D-01
 E= -389.445869124448     Delta-E=       -0.000027750592 Rises=F Damp=F
 DIIS: error= 2.83D-04 at cycle   6 NSaved=   6.
 NSaved= 6 IEnMin= 6 EnMin= -389.445869124448     IErMin= 6 ErrMin= 2.83D-04
 ErrMax= 2.83D-04  0.00D+00 EMaxC= 1.00D-01 BMatC= 6.12D-06 BMatP= 3.38D-05
 IDIUse=3 WtCom= 9.97D-01 WtEn= 2.83D-03
 Coeff-Com: -0.993D-03 0.129D-02 0.595D-01 0.111D+00 0.339D+00 0.490D+00
 Coeff-En:   0.000D+00 0.000D+00 0.000D+00 0.000D+00 0.197D+00 0.803D+00
 Coeff:     -0.991D-03 0.128D-02 0.593D-01 0.111D+00 0.339D+00 0.491D+00
 Gap=     0.136 Goal=   None    Shift=    0.000
 RMSDP=1.81D-05 MaxDP=4.33D-04 DE=-2.78D-05 OVMax= 1.32D-03

 Cycle   7  Pass 0  IDiag  1:
 RMSU=  5.78D-06    CP:  9.65D-01  9.45D-01  9.43D-01  6.10D-01  6.44D-01
                    CP:  4.97D-01
 E= -389.445876503549     Delta-E=       -0.000007379100 Rises=F Damp=F
 DIIS: error= 3.41D-05 at cycle   7 NSaved=   7.
 NSaved= 7 IEnMin= 7 EnMin= -389.445876503549     IErMin= 7 ErrMin= 3.41D-05
 ErrMax= 3.41D-05  0.00D+00 EMaxC= 1.00D-01 BMatC= 1.24D-07 BMatP= 6.12D-06
 IDIUse=1 WtCom= 1.00D+00 WtEn= 0.00D+00
 Coeff-Com: -0.285D-03 0.103D-03 0.199D-01 0.393D-01 0.134D+00 0.225D+00
 Coeff-Com:  0.582D+00
 Coeff:     -0.285D-03 0.103D-03 0.199D-01 0.393D-01 0.134D+00 0.225D+00
 Coeff:      0.582D+00
 Gap=     0.136 Goal=   None    Shift=    0.000
 RMSDP=3.31D-06 MaxDP=9.60D-05 DE=-7.38D-06 OVMax= 2.20D-04

 Initial convergence to 1.0D-05 achieved.  Increase integral accuracy.
 Cycle   8  Pass 1  IDiag  1:
 E= -389.445961177736     Delta-E=       -0.000084674187 Rises=F Damp=F
 DIIS: error= 2.14D-05 at cycle   1 NSaved=   1.
 NSaved= 1 IEnMin= 1 EnMin= -389.445961177736     IErMin= 1 ErrMin= 2.14D-05
 ErrMax= 2.14D-05  0.00D+00 EMaxC= 1.00D-01 BMatC= 9.40D-08 BMatP= 9.40D-08
 IDIUse=1 WtCom= 1.00D+00 WtEn= 0.00D+00
 Coeff-Com:  0.100D+01
 Coeff:      0.100D+01
 Gap=     0.136 Goal=   None    Shift=    0.000
 RMSDP=3.31D-06 MaxDP=9.60D-05 DE=-8.47D-05 OVMax= 2.07D-04

 Cycle   9  Pass 1  IDiag  1:
 RMSU=  8.69D-06    CP:  1.00D+00
 E= -389.445961100017     Delta-E=        0.000000077719 Rises=F Damp=F
 DIIS: error= 3.75D-05 at cycle   2 NSaved=   2.
 NSaved= 2 IEnMin= 1 EnMin= -389.445961177736     IErMin= 1 ErrMin= 2.14D-05
 ErrMax= 3.75D-05  0.00D+00 EMaxC= 1.00D-01 BMatC= 1.52D-07 BMatP= 9.40D-08
 IDIUse=1 WtCom= 1.00D+00 WtEn= 0.00D+00
 Coeff-Com:  0.572D+00 0.428D+00
 Coeff:      0.572D+00 0.428D+00
 Gap=     0.136 Goal=   None    Shift=    0.000
 RMSDP=2.81D-06 MaxDP=9.22D-05 DE= 7.77D-08 OVMax= 1.73D-04

 Cycle  10  Pass 1  IDiag  1:
 RMSU=  2.63D-06    CP:  1.00D+00  8.83D-01
 E= -389.445961249997     Delta-E=       -0.000000149980 Rises=F Damp=F
 DIIS: error= 1.00D-05 at cycle   3 NSaved=   3.
 NSaved= 3 IEnMin= 3 EnMin= -389.445961249997     IErMin= 3 ErrMin= 1.00D-05
 ErrMax= 1.00D-05  0.00D+00 EMaxC= 1.00D-01 BMatC= 1.12D-08 BMatP= 9.40D-08
 IDIUse=1 WtCom= 1.00D+00 WtEn= 0.00D+00
 Coeff-Com:  0.163D-01 0.213D+00 0.771D+00
 Coeff:      0.163D-01 0.213D+00 0.771D+00
 Gap=     0.136 Goal=   None    Shift=    0.000
 RMSDP=7.67D-07 MaxDP=2.37D-05 DE=-1.50D-07 OVMax= 5.71D-05

 Cycle  11  Pass 1  IDiag  1:
 RMSU=  3.92D-07    CP:  1.00D+00  9.18D-01  7.77D-01
 E= -389.445961260504     Delta-E=       -0.000000010508 Rises=F Damp=F
 DIIS: error= 4.04D-06 at cycle   4 NSaved=   4.
 NSaved= 4 IEnMin= 4 EnMin= -389.445961260504     IErMin= 4 ErrMin= 4.04D-06
 ErrMax= 4.04D-06  0.00D+00 EMaxC= 1.00D-01 BMatC= 1.72D-09 BMatP= 1.12D-08
 IDIUse=1 WtCom= 1.00D+00 WtEn= 0.00D+00
 Coeff-Com: -0.464D-02 0.128D+00 0.508D+00 0.369D+00
 Coeff:     -0.464D-02 0.128D+00 0.508D+00 0.369D+00
 Gap=     0.136 Goal=   None    Shift=    0.000
 RMSDP=2.51D-07 MaxDP=8.28D-06 DE=-1.05D-08 OVMax= 2.01D-05

 Cycle  12  Pass 1  IDiag  1:
 RMSU=  7.60D-08    CP:  1.00D+00  9.18D-01  8.01D-01  4.10D-01
 E= -389.445961262441     Delta-E=       -0.000000001936 Rises=F Damp=F
 DIIS: error= 3.68D-07 at cycle   5 NSaved=   5.
 NSaved= 5 IEnMin= 5 EnMin= -389.445961262441     IErMin= 5 ErrMin= 3.68D-07
 ErrMax= 3.68D-07  0.00D+00 EMaxC= 1.00D-01 BMatC= 2.92D-11 BMatP= 1.72D-09
 IDIUse=1 WtCom= 1.00D+00 WtEn= 0.00D+00
 Coeff-Com: -0.327D-02 0.579D-01 0.232D+00 0.191D+00 0.522D+00
 Coeff:     -0.327D-02 0.579D-01 0.232D+00 0.191D+00 0.522D+00
 Gap=     0.136 Goal=   None    Shift=    0.000
 RMSDP=3.13D-08 MaxDP=9.18D-07 DE=-1.94D-09 OVMax= 1.88D-06

 Cycle  13  Pass 1  IDiag  1:
 RMSU=  2.10D-08    CP:  1.00D+00  9.18D-01  8.00D-01  4.36D-01  7.28D-01
 E= -389.445961262479     Delta-E=       -0.000000000038 Rises=F Damp=F
 DIIS: error= 6.83D-08 at cycle   6 NSaved=   6.
 NSaved= 6 IEnMin= 6 EnMin= -389.445961262479     IErMin= 6 ErrMin= 6.83D-08
 ErrMax= 6.83D-08  0.00D+00 EMaxC= 1.00D-01 BMatC= 1.24D-12 BMatP= 2.92D-11
 IDIUse=1 WtCom= 1.00D+00 WtEn= 0.00D+00
 Coeff-Com: -0.741D-03 0.915D-02 0.375D-01 0.356D-01 0.204D+00 0.714D+00
 Coeff:     -0.741D-03 0.915D-02 0.375D-01 0.356D-01 0.204D+00 0.714D+00
 Gap=     0.136 Goal=   None    Shift=    0.000
 RMSDP=6.51D-09 MaxDP=2.02D-07 DE=-3.82D-11 OVMax= 4.73D-07

 SCF Done:  E(RB3LYP) =  -389.445961262     A.U. after   13 cycles
            NFock= 13  Conv=0.65D-08     -V/T= 2.0102
 KE= 3.855041902411D+02 PE=-1.755800471827D+03 EE= 5.530399201667D+02
 Leave Link  502 at Sun Jun  6 19:39:03 2021, MaxMem=    33554432 cpu:        60.8
 (Enter /opt/app/gaussian09/e01/g09/l801.exe)
 DoSCS=F DFT=T ScalE2(SS,OS)=  1.000000  1.000000
 ExpMin= 1.61D-01 ExpMax= 3.05D+03 ExpMxC= 4.57D+02 IAcc=3 IRadAn=         5 AccDes= 0.00D+00
 HarFok:  IExCor=  205 AccDes= 0.00D+00 IRadAn=         5 IDoV=-2 UseB2=F ITyADJ=14
 ICtDFT= 12500011 ScaDFX=  1.000000  1.000000  1.000000  1.000000
 Largest valence mixing into a core orbital is  5.38D-05
 Largest core mixing into a valence orbital is  1.12D-05
 Range of M.O.s used for correlation:    11   178
 NBasis=   178 NAE=    37 NBE=    37 NFC=    10 NFV=     0
 NROrb=    168 NOA=    27 NOB=    27 NVA=   141 NVB=   141
 Leave Link  801 at Sun Jun  6 19:39:04 2021, MaxMem=    33554432 cpu:         0.9
 (Enter /opt/app/gaussian09/e01/g09/l914.exe)
 RHF ground state
 MDV=    33554432 DFT=T DoStab=F Mixed=T DoRPA=T DoScal=F NonHer=T
 Would need an additional           358500000 words for in-memory AO integral storage.
 Making orbital integer symmetry assigments:
    40 initial guesses have been made.
 Convergence on wavefunction:    0.001000000000000
 Davidson Disk Diagonalization:  ConvIn= 1.00D-03 SkipCon=T Conv= 1.00D-03.
 Max sub-space:   200 roots to seek:    40 dimension of matrix:         7614
 Iteration     1 Dimension    40 NMult     0 NNew     40
 CISAX will form    40 AO SS matrices at one time.
 NMat=    40 NSing=    40 JSym2X= 0.
 FoFJK:  IHMeth= 1 ICntrl=       0 DoSepK=F KAlg= 0 I1Cent=   0 FoldK=F
 IRaf=         0 NMat=  80 IRICut=     100 DoRegI=T DoRafI=T ISym2E= 0.
 FoFCou: FMM=F IPFlag=           0 FMFlag=      100000 FMFlg1=           0
         NFxFlg=           0 DoJE=F BraDBF=F KetDBF=F FulRan=T
         wScrn=  0.000000 ICntrl=       0 IOpCl=  0 I1Cent=           0 NGrid=           0
         NMat0=   80 NMatS0=     40 NMatT0=    0 NMatD0=   80 NMtDS0=    0 NMtDT0=    0
 Symmetry not used in FoFCou.
 New state      3 was old state      4
 New state      4 was old state      7
 New state      5 was old state      9
 New state      6 was old state      8
 New state      7 was old state     11
 New state      8 was old state     10
 New state      9 was old state      6
 New state     10 was old state     12
 Excitation Energies [eV] at current iteration:
 Root      1 :     4.536128076839639
 Root      2 :     4.859653654459829
 Root      3 :     6.260271959512480
 Root      4 :     6.689710439843502
 Root      5 :     6.879104889123598
 Root      6 :     7.022163442092457
 Root      7 :     7.096177508776209
 Root      8 :     7.124288651575820
 Root      9 :     7.317550386659004
 Root     10 :     7.366409867137262
 Root     11 :     7.390866000691787
 Root     12 :     7.537763153524295
 Root     13 :     7.574907809106710
 Root     14 :     7.601589364001319
 Root     15 :     7.931519557737126
 Root     16 :     8.240388345293294
 Root     17 :     8.271708527481033
 Root     18 :     8.275558889437255
 Root     19 :     8.311226374128220
 Root     20 :     8.413933627788316
 Root     21 :     8.472928213224096
 Root     22 :     8.514502183789679
 Root     23 :     8.650562873612710
 Root     24 :     8.665421380503888
 Root     25 :     8.842447708012587
 Root     26 :     9.007871211899840
 Root     27 :     9.046183425177835
 Root     28 :     9.050609495739319
 Root     29 :     9.149213435900286
 Root     30 :     9.172153134191111
 Root     31 :     9.173772125278601
 Root     32 :     9.183414455615077
 Root     33 :     9.274302239829280
 Root     34 :     9.353710748449933
 Root     35 :     9.369742113102159
 Root     36 :     9.539977810475323
 Root     37 :     9.558330662214034
 Root     38 :     9.650605419274592
 Root     39 :    10.408332217442940
 Root     40 :    10.431988747721880
 Iteration     2 Dimension    60 NMult    40 NNew     20
 CISAX will form    20 AO SS matrices at one time.
 NMat=    20 NSing=    20 JSym2X= 0.
 Root      1 not converged, maximum delta is    0.061350178052704
 Root      2 not converged, maximum delta is    0.022737319941355
 New state      3 was old state      7
 Root      3 not converged, maximum delta is    0.335534876699028
 New state      4 was old state      3
 Root      4 not converged, maximum delta is    0.053235150408475
 New state      5 was old state      4
 Root      5 not converged, maximum delta is    0.041729084642152
 New state      6 was old state      5
 Root      6 not converged, maximum delta is    0.042015272410413
 New state      7 was old state      9
 Root      7 not converged, maximum delta is    0.053876617393815
 New state      8 was old state      6
 Root      8 not converged, maximum delta is    0.233798476916358
 New state      9 was old state      8
 Root      9 not converged, maximum delta is    0.051124382098346
 Root     10 not converged, maximum delta is    0.035648038909210
 Excitation Energies [eV] at current iteration:
 Root      1 :     3.998977615020955   Change is   -0.537150461818684
 Root      2 :     4.831550762124891   Change is   -0.028102892334938
 Root      3 :     6.168541516928244   Change is   -0.927635991847964
 Root      4 :     6.209623005010434   Change is   -0.050648954502047
 Root      5 :     6.666839383535677   Change is   -0.022871056307826
 Root      6 :     6.836464626055810   Change is   -0.042640263067788
 Root      7 :     6.968033841595572   Change is   -0.349516545063432
 Root      8 :     7.005078902977720   Change is   -0.017084539114736
 Root      9 :     7.079089449445418   Change is   -0.045199202130402
 Root     10 :     7.339351560659759   Change is   -0.027058306477503
 Iteration     3 Dimension    80 NMult    60 NNew     20
 CISAX will form    20 AO SS matrices at one time.
 NMat=    20 NSing=    20 JSym2X= 0.
 Root      1 not converged, maximum delta is    0.006018118604358
 Root      2 not converged, maximum delta is    0.002009569964267
 Root      3 not converged, maximum delta is    0.013696117312744
 Root      4 not converged, maximum delta is    0.008443207033605
 Root      5 not converged, maximum delta is    0.002247643948945
 Root      6 not converged, maximum delta is    0.004561995911106
 Root      7 not converged, maximum delta is    0.012169845863532
 Root      8 not converged, maximum delta is    0.005620029320730
 Root      9 not converged, maximum delta is    0.006680925599696
 Root     10 not converged, maximum delta is    0.001864746978384
 Excitation Energies [eV] at current iteration:
 Root      1 :     3.980673309840649   Change is   -0.018304305180306
 Root      2 :     4.830347169019478   Change is   -0.001203593105412
 Root      3 :     6.121286569867837   Change is   -0.047254947060408
 Root      4 :     6.206424894055340   Change is   -0.003198110955093
 Root      5 :     6.666331139994178   Change is   -0.000508243541498
 Root      6 :     6.834901834360158   Change is   -0.001562791695652
 Root      7 :     6.958326709139459   Change is   -0.009707132456113
 Root      8 :     7.003090348955538   Change is   -0.001988554022183
 Root      9 :     7.077357866113758   Change is   -0.001731583331660
 Root     10 :     7.338795594036256   Change is   -0.000555966623503
 Iteration     4 Dimension   100 NMult    80 NNew     20
 CISAX will form    20 AO SS matrices at one time.
 NMat=    20 NSing=    20 JSym2X= 0.
 Root      1 has converged.
 Root      2 has converged.
 Root      3 not converged, maximum delta is    0.002023875603581
 Root      4 not converged, maximum delta is    0.001411797374804
 Root      5 has converged.
 Root      6 has converged.
 Root      7 not converged, maximum delta is    0.006098993300185
 Root      8 not converged, maximum delta is    0.001536887413444
 Root      9 not converged, maximum delta is    0.001348465091957
 Root     10 has converged.
 Excitation Energies [eV] at current iteration:
 Root      1 :     3.980319840025050   Change is   -0.000353469815600
 Root      2 :     4.830280884635269   Change is   -0.000066284384210
 Root      3 :     6.118370663906687   Change is   -0.002915905961150
 Root      4 :     6.206229292867246   Change is   -0.000195601188095
 Root      5 :     6.666298948742959   Change is   -0.000032191251220
 Root      6 :     6.834805131917197   Change is   -0.000096702442961
 Root      7 :     6.957402211433826   Change is   -0.000924497705633
 Root      8 :     7.002933110754386   Change is   -0.000157238201152
 Root      9 :     7.077223694575423   Change is   -0.000134171538334
 Root     10 :     7.338741759546404   Change is   -0.000053834489852
 Iteration     5 Dimension   110 NMult   100 NNew     10
 CISAX will form    10 AO SS matrices at one time.
 NMat=    10 NSing=    10 JSym2X= 0.
 Root      1 has converged.
 Root      2 has converged.
 Root      3 has converged.
 Root      4 has converged.
 Root      5 has converged.
 Root      6 has converged.
 Root      7 has converged.
 Root      8 has converged.
 Root      9 has converged.
 Root     10 has converged.
 Excitation Energies [eV] at current iteration:
 Root      1 :     3.980315856619387   Change is   -0.000003983405662
 Root      2 :     4.830277635858011   Change is   -0.000003248777258
 Root      3 :     6.118176052406786   Change is   -0.000194611499901
 Root      4 :     6.206216141993796   Change is   -0.000013150873450
 Root      5 :     6.666298948536191   Change is   -0.000000000206767
 Root      6 :     6.834805131852994   Change is   -0.000000000064204
 Root      7 :     6.957353306490367   Change is   -0.000048904943459
 Root      8 :     7.002918615365154   Change is   -0.000014495389232
 Root      9 :     7.077210627149955   Change is   -0.000013067425468
 Root     10 :     7.338741697575969   Change is   -0.000000061970435
 Convergence achieved on expansion vectors.
 ***********************************************************************
 Excited states from <AA,BB:AA,BB> singles matrix:
 ***********************************************************************
 
 1PDM for each excited state written to RWF  633
 Ground to excited state transition densities written to RWF  633
 Ground to excited state transition electric dipole moments (Au):
       state          X           Y           Z        Dip. S.      Osc.
         1        -4.1805      0.4117      0.0000     17.6457      1.7207
         2         0.0000     -0.0000     -0.0000      0.0000      0.0000
         3        -0.0000     -0.0000     -0.0003      0.0000      0.0000
         4        -0.0361      0.0765     -0.0000      0.0072      0.0011
         5        -0.0001      0.0001     -0.0188      0.0004      0.0001
         6        -0.0001      0.0000      0.0317      0.0010      0.0002
         7        -0.4807      0.3278     -0.0000      0.3386      0.0577
         8        -0.0000      0.0000     -0.0000      0.0000      0.0000
         9         0.0001     -0.0001     -0.0000      0.0000      0.0000
        10         0.0002     -0.0001      0.0000      0.0000      0.0000
 Ground to excited state transition velocity dipole moments (Au):
       state          X           Y           Z        Dip. S.      Osc.
         1         0.5893     -0.0626     -0.0000      0.3512      1.6008
         2        -0.0000      0.0000      0.0000      0.0000      0.0000
         3         0.0000      0.0000      0.0001      0.0000      0.0000
         4         0.0096     -0.0166      0.0000      0.0004      0.0011
         5         0.0000     -0.0000      0.0044      0.0000      0.0001
         6         0.0000     -0.0000     -0.0074      0.0001      0.0001
         7         0.1190     -0.0789      0.0000      0.0204      0.0532
         8         0.0000     -0.0000      0.0000      0.0000      0.0000
         9        -0.0000      0.0000      0.0000      0.0000      0.0000
        10        -0.0001      0.0000     -0.0000      0.0000      0.0000
 Ground to excited state transition magnetic dipole moments (Au):
       state          X           Y           Z
         1        -0.0000     -0.0004      0.0000
         2         0.0000      0.0000      0.1370
         3         0.0000      0.0003     -0.4672
         4         0.0000      0.0000      0.0000
         5         0.0000     -0.0000      0.0002
         6        -0.0000     -0.0000      0.0001
         7        -0.0000     -0.0001     -0.0000
         8         0.0002     -0.0001      0.1291
         9        -0.2537      0.1555      0.0000
        10        -0.0114      0.0075      0.0004
 Ground to excited state transition velocity quadrupole moments (Au):
       state          XX          YY          ZZ          XY          XZ          YZ
         1        -0.0000     -0.0000      0.0000      0.0000      0.0002      0.0000
         2         0.6917     -0.0005     -0.0071     -0.0269     -0.0000      0.0000
         3         6.8930     -0.0569      0.0560     -0.5882     -0.0003     -0.0000
         4        -0.0001      0.0000     -0.0000      0.0000     -0.0001      0.0000
         5        -0.0007      0.0000     -0.0000      0.0002      0.0000      0.0000
         6        -0.0001      0.0000     -0.0000      0.0000      0.0000     -0.0000
         7         0.0001      0.0000      0.0000     -0.0000      0.0000      0.0000
         8        -0.0100     -0.0099      0.0003      0.0877      0.0000      0.0000
         9         0.0005     -0.0000      0.0000     -0.0000     -0.0601     -0.0256
        10        -0.0010      0.0000     -0.0000      0.0003     -0.0473     -0.0221
 <0|del|b> * <b|rxdel|0> + <0|del|b> * <b|delr+rdel|0>
 Rotatory Strengths (R) in cgs (10**-40 erg-esu-cm/Gauss)
       state          XX          YY          ZZ    R(velocity)    E-M Angle
         1         0.0949      0.0053     -0.0098      0.0302       90.00
         2         0.0015      0.0022     -0.0000      0.0012       90.00
         3        -0.1306      0.0150      0.0000     -0.0386       90.00
         4        -0.0023      0.0007      0.0018      0.0001       90.00
         5         0.0025      0.0001      0.0000      0.0008       90.00
         6        -0.0008     -0.0004     -0.0000     -0.0004       90.00
         7         0.0076     -0.0019     -0.0075     -0.0006       90.00
         8         0.0014      0.0003      0.0000      0.0006       90.00
         9         0.0067      0.0114      0.0123      0.0101       90.00
        10         0.0008      0.0024     -0.0014      0.0006       90.00
 1/2[<0|r|b>*<b|rxdel|0> + (<0|rxdel|b>*<b|r|0>)*]
 Rotatory Strengths (R) in cgs (10**-40 erg-esu-cm/Gauss)
       state          XX          YY          ZZ     R(length)
         1        -0.0320      0.1168     -0.0000      0.0283
         2        -0.0000      0.0000      0.0038      0.0013
         3         0.0000      0.0000     -0.1106     -0.0369
         4         0.0011     -0.0011      0.0000     -0.0000
         5         0.0000      0.0000      0.0026      0.0009
         6        -0.0000      0.0000     -0.0013     -0.0004
         7        -0.0150      0.0134     -0.0000     -0.0005
         8         0.0000      0.0000      0.0001      0.0000
         9         0.0206      0.0110      0.0000      0.0105
        10         0.0017      0.0003     -0.0000      0.0007
  1/2[<0|del|b>*<b|r|0> + (<0|r|b>*<b|del|0>)*] (Au)
       state          X           Y           Z        Dip. S.   Osc.(frdel)
         1        -2.4637     -0.0258     -0.0000      2.4894      1.6596
         2        -0.0000     -0.0000     -0.0000      0.0000      0.0000
         3        -0.0000     -0.0000     -0.0000      0.0000      0.0000
         4        -0.0003     -0.0013     -0.0000      0.0016      0.0011
         5        -0.0000     -0.0000     -0.0001      0.0001      0.0001
         6        -0.0000     -0.0000     -0.0002      0.0002      0.0002
         7        -0.0572     -0.0259     -0.0000      0.0831      0.0554
         8        -0.0000     -0.0000     -0.0000      0.0000      0.0000
         9        -0.0000     -0.0000     -0.0000      0.0000      0.0000
        10        -0.0000     -0.0000     -0.0000      0.0000      0.0000

 Excitation energies and oscillator strengths:
 
 Excited state symmetry could not be determined.
 Excited State   1:      Singlet-?Sym    3.9803 eV  311.49 nm  f=1.7207  <S**2>=0.000
      37 -> 38         0.71358
      37 <- 38        -0.12138
 This state for optimization and/or second-order correction.
 Total Energy, E(TD-HF/TD-KS) =  -389.299687340    
 Copying the excited state density for this state as the 1-particle RhoCI density.
 
 Excited state symmetry could not be determined.
 Excited State   2:      Singlet-?Sym    4.8303 eV  256.68 nm  f=0.0000  <S**2>=0.000
      36 -> 38         0.55504
      37 -> 39        -0.43437
 
 Excited state symmetry could not be determined.
 Excited State   3:      Singlet-?Sym    6.1182 eV  202.65 nm  f=0.0000  <S**2>=0.000
      36 -> 38         0.43503
      37 -> 39         0.55334
 
 Excited state symmetry could not be determined.
 Excited State   4:      Singlet-?Sym    6.2062 eV  199.77 nm  f=0.0011  <S**2>=0.000
      35 -> 38         0.59321
      37 -> 40        -0.37581
 
 Excited state symmetry could not be determined.
 Excited State   5:      Singlet-?Sym    6.6663 eV  185.99 nm  f=0.0001  <S**2>=0.000
      37 -> 41         0.69646
 
 Excited state symmetry could not be determined.
 Excited State   6:      Singlet-?Sym    6.8348 eV  181.40 nm  f=0.0002  <S**2>=0.000
      33 -> 38         0.69101
 
 Excited state symmetry could not be determined.
 Excited State   7:      Singlet-?Sym    6.9574 eV  178.21 nm  f=0.0577  <S**2>=0.000
      35 -> 38         0.22394
      36 -> 39         0.51125
      37 -> 40         0.43039
 
 Excited state symmetry could not be determined.
 Excited State   8:      Singlet-?Sym    7.0029 eV  177.05 nm  f=0.0000  <S**2>=0.000
      34 -> 38         0.53190
      37 -> 42         0.46052
 
 Excited state symmetry could not be determined.
 Excited State   9:      Singlet-?Sym    7.0772 eV  175.19 nm  f=0.0000  <S**2>=0.000
      32 -> 38         0.68793
 
 Excited state symmetry could not be determined.
 Excited State  10:      Singlet-?Sym    7.3387 eV  168.94 nm  f=0.0000  <S**2>=0.000
      36 -> 41        -0.13839
      37 -> 43         0.55660
      37 -> 45        -0.40399
 SavETr:  write IOETrn=   770 NScale= 10 NData=  16 NLR=1 NState=   10 LETran=     190.
 Leave Link  914 at Sun Jun  6 19:43:24 2021, MaxMem=    33554432 cpu:       260.5
 (Enter /opt/app/gaussian09/e01/g09/l601.exe)
 Copying SCF densities to generalized density rwf, IOpCl= 0 IROHF=0.

 **********************************************************************

            Population analysis using the SCF density.

 **********************************************************************

 Alpha  occ. eigenvalues --  -10.18792 -10.18792 -10.18584 -10.18577 -10.18500
 Alpha  occ. eigenvalues --  -10.18468 -10.18302 -10.18302 -10.18259 -10.18259
 Alpha  occ. eigenvalues --   -0.81846  -0.80162  -0.77580  -0.74090  -0.69699
 Alpha  occ. eigenvalues --   -0.66026  -0.59267  -0.55743  -0.54439  -0.54409
 Alpha  occ. eigenvalues --   -0.47404  -0.46615  -0.43074  -0.42992  -0.41024
 Alpha  occ. eigenvalues --   -0.41015  -0.39872  -0.38332  -0.36956  -0.36207
 Alpha  occ. eigenvalues --   -0.35508  -0.34526  -0.33803  -0.33572  -0.29991
 Alpha  occ. eigenvalues --   -0.24749  -0.18417
 Alpha virt. eigenvalues --   -0.04789   0.02744   0.08689   0.09562   0.11412
 Alpha virt. eigenvalues --    0.11703   0.11877   0.11919   0.15043   0.15253
 Alpha virt. eigenvalues --    0.15785   0.16241   0.17315   0.17358   0.17384
 Alpha virt. eigenvalues --    0.17753   0.20168   0.20214   0.24825   0.26434
 Alpha virt. eigenvalues --    0.31642   0.35585   0.36022   0.37947   0.41041
 Alpha virt. eigenvalues --    0.42625   0.43040   0.48179   0.49452   0.52405
 Alpha virt. eigenvalues --    0.53306   0.55626   0.57200   0.57205   0.57544
 Alpha virt. eigenvalues --    0.59301   0.59801   0.61427   0.61455   0.61702
 Alpha virt. eigenvalues --    0.61918   0.64799   0.65720   0.67819   0.68646
 Alpha virt. eigenvalues --    0.73040   0.73251   0.73874   0.75321   0.77627
 Alpha virt. eigenvalues --    0.77741   0.82890   0.85468   0.86504   0.87481
 Alpha virt. eigenvalues --    0.87593   0.87771   0.88732   0.88907   0.90197
 Alpha virt. eigenvalues --    0.90377   0.91530   0.92036   0.94455   0.95166
 Alpha virt. eigenvalues --    0.96580   0.97985   1.04775   1.05132   1.05635
 Alpha virt. eigenvalues --    1.09730   1.13792   1.16956   1.23690   1.24639
 Alpha virt. eigenvalues --    1.31531   1.32279   1.33067   1.33438   1.35348
 Alpha virt. eigenvalues --    1.36524   1.39806   1.40011   1.44076   1.46556
 Alpha virt. eigenvalues --    1.51968   1.52248   1.59661   1.67169   1.73151
 Alpha virt. eigenvalues --    1.77104   1.77524   1.83133   1.85400   1.85868
 Alpha virt. eigenvalues --    1.89014   1.90677   1.92907   1.93598   1.94795
 Alpha virt. eigenvalues --    2.00336   2.01134   2.01782   2.10225   2.12371
 Alpha virt. eigenvalues --    2.15320   2.17039   2.18020   2.23307   2.27220
 Alpha virt. eigenvalues --    2.27804   2.31440   2.31716   2.35494   2.36802
 Alpha virt. eigenvalues --    2.38479   2.39603   2.44872   2.48188   2.50916
 Alpha virt. eigenvalues --    2.51440   2.55517   2.63421   2.80866   2.81402
 Alpha virt. eigenvalues --    2.89401   2.93270   2.97101   2.99247   3.10364
 Alpha virt. eigenvalues --    3.10517   4.09674   4.10434   4.12252   4.15302
 Alpha virt. eigenvalues --    4.18663   4.27527   4.32601   4.38905   4.47191
 Alpha virt. eigenvalues --    4.54833
     Molecular Orbital Coefficients:
                           1         2         3         4         5
                           O         O         O         O         O
     Eigenvalues --   -10.18792 -10.18792 -10.18584 -10.18577 -10.18500
   1 1   C  1S          0.00611   0.00032   0.60618  -0.65004  -0.35462
   2        2S          0.00021   0.00001   0.03001  -0.03231  -0.01806
   3        2PX         0.00003  -0.00001  -0.00018   0.00010  -0.00019
   4        2PY        -0.00002   0.00000  -0.00004   0.00004   0.00017
   5        2PZ         0.00000   0.00000   0.00000  -0.00000  -0.00000
   6        3S          0.00020  -0.00010  -0.00792   0.00898   0.00945
   7        3PX        -0.00028  -0.00003   0.00123  -0.00002   0.00145
   8        3PY         0.00018  -0.00001   0.00142  -0.00122  -0.00130
   9        3PZ         0.00000   0.00000  -0.00000   0.00000  -0.00000
  10        4XX        -0.00002  -0.00001  -0.00565   0.00607   0.00312
  11        4YY        -0.00006  -0.00000  -0.00579   0.00619   0.00317
  12        4ZZ        -0.00009  -0.00001  -0.00590   0.00629   0.00332
  13        4XY         0.00001  -0.00000  -0.00004   0.00003   0.00007
  14        4XZ        -0.00000   0.00000  -0.00000   0.00000   0.00000
  15        4YZ        -0.00000  -0.00000   0.00000  -0.00000  -0.00000
  16 2   H  1S         -0.00002  -0.00000  -0.00029   0.00023   0.00007
  17        2S         -0.00018   0.00002   0.00082  -0.00099  -0.00090
  18 3   C  1S          0.00067   0.00002   0.35658  -0.25390   0.60572
  19        2S          0.00001  -0.00005   0.01730  -0.01244   0.03025
  20        2PX         0.00004   0.00000   0.00013  -0.00033  -0.00028
  21        2PY         0.00001  -0.00001  -0.00011   0.00007   0.00007
  22        2PZ        -0.00000   0.00000  -0.00000  -0.00000   0.00000
  23        3S         -0.00014   0.00066  -0.00045   0.00149  -0.00906
  24        3PX        -0.00083   0.00030  -0.00079   0.00238   0.00251
  25        3PY        -0.00021   0.00028  -0.00036   0.00008  -0.00141
  26        3PZ         0.00000  -0.00000   0.00000  -0.00000  -0.00000
  27        4XX         0.00000   0.00001  -0.00354   0.00244  -0.00573
  28        4YY        -0.00001  -0.00000  -0.00363   0.00252  -0.00577
  29        4ZZ        -0.00002  -0.00002  -0.00358   0.00249  -0.00587
  30        4XY        -0.00001   0.00001  -0.00003  -0.00006  -0.00018
  31        4XZ        -0.00000  -0.00000  -0.00000   0.00000  -0.00000
  32        4YZ        -0.00000  -0.00000  -0.00000   0.00000   0.00000
  33 4   H  1S         -0.00005  -0.00001  -0.00024   0.00012  -0.00024
  34        2S          0.00002   0.00010   0.00013  -0.00039   0.00097
  35 5   C  1S         -0.00005   0.00067   0.35458   0.25663   0.60445
  36        2S         -0.00005   0.00000   0.01720   0.01257   0.03019
  37        2PX         0.00000  -0.00004  -0.00013  -0.00033   0.00028
  38        2PY         0.00001  -0.00001   0.00011   0.00007  -0.00007
  39        2PZ         0.00000  -0.00000  -0.00000  -0.00000   0.00000
  40        3S          0.00067  -0.00007  -0.00043  -0.00149  -0.00903
  41        3PX        -0.00038   0.00080   0.00077   0.00239  -0.00251
  42        3PY        -0.00030   0.00018   0.00036   0.00008   0.00141
  43        3PZ        -0.00000   0.00000   0.00000   0.00000  -0.00000
  44        4XX         0.00001   0.00000  -0.00352  -0.00247  -0.00572
  45        4YY        -0.00000  -0.00001  -0.00361  -0.00254  -0.00576
  46        4ZZ        -0.00002  -0.00002  -0.00356  -0.00252  -0.00586
  47        4XY         0.00001  -0.00001  -0.00003   0.00006  -0.00018
  48        4XZ         0.00000   0.00000   0.00000   0.00000   0.00000
  49        4YZ         0.00000   0.00000   0.00000   0.00000  -0.00000
  50 6   H  1S         -0.00000  -0.00005  -0.00024  -0.00012  -0.00024
  51        2S          0.00009   0.00003   0.00013   0.00039   0.00097
  52 7   C  1S         -0.00029   0.00611   0.60129   0.65457  -0.35418
  53        2S         -0.00001   0.00021   0.02977   0.03254  -0.01804
  54        2PX         0.00001  -0.00002   0.00018   0.00010   0.00019
  55        2PY        -0.00000   0.00002   0.00004   0.00004  -0.00017
  56        2PZ         0.00000   0.00000   0.00000   0.00000   0.00000
  57        3S         -0.00012   0.00019  -0.00785  -0.00904   0.00943
  58        3PX         0.00000   0.00028  -0.00123  -0.00003  -0.00145
  59        3PY         0.00003  -0.00017  -0.00141  -0.00123   0.00130
  60        3PZ         0.00000   0.00000  -0.00000  -0.00000  -0.00000
  61        4XX        -0.00001  -0.00002  -0.00560  -0.00611   0.00312
  62        4YY         0.00001  -0.00006  -0.00575  -0.00624   0.00317
  63        4ZZ        -0.00000  -0.00009  -0.00586  -0.00634   0.00332
  64        4XY        -0.00000   0.00001  -0.00004  -0.00003   0.00007
  65        4XZ        -0.00000   0.00000   0.00000   0.00000  -0.00000
  66        4YZ        -0.00000   0.00000  -0.00000  -0.00000   0.00000
  67 8   H  1S          0.00000  -0.00002  -0.00029  -0.00023   0.00007
  68        2S          0.00004  -0.00017   0.00081   0.00099  -0.00090
  69 9   C  1S         -0.00405   0.08068   0.03944   0.04416  -0.03370
  70        2S         -0.00018   0.00343   0.00172   0.00200  -0.00158
  71        2PX         0.00003  -0.00037   0.00018   0.00019  -0.00008
  72        2PY        -0.00001   0.00020   0.00009   0.00009  -0.00008
  73        2PZ         0.00000  -0.00000   0.00000   0.00000  -0.00000
  74        3S         -0.00027   0.00482   0.00263   0.00219  -0.00176
  75        3PX        -0.00027   0.00286  -0.00189  -0.00128   0.00060
  76        3PY         0.00007  -0.00065  -0.00019  -0.00000   0.00047
  77        3PZ        -0.00000   0.00000  -0.00000  -0.00000   0.00000
  78        4XX         0.00005  -0.00100  -0.00059  -0.00068   0.00050
  79        4YY         0.00005  -0.00105  -0.00055  -0.00061   0.00044
  80        4ZZ         0.00004  -0.00093  -0.00049  -0.00052   0.00038
  81        4XY         0.00000   0.00003  -0.00009  -0.00012   0.00008
  82        4XZ         0.00000  -0.00000  -0.00000  -0.00000   0.00000
  83        4YZ         0.00000  -0.00000  -0.00000  -0.00000   0.00000
  84 10  H  1S          0.00000  -0.00014  -0.00011  -0.00009   0.00003
  85        2S          0.00000  -0.00017  -0.00014  -0.00027  -0.00005
  86 11  C  1S         -0.04949   0.98791  -0.00722  -0.00786   0.00456
  87        2S         -0.00247   0.04909  -0.00044  -0.00046   0.00023
  88        2PX        -0.00001   0.00012   0.00003   0.00003  -0.00001
  89        2PY        -0.00001   0.00011   0.00000   0.00001   0.00000
  90        2PZ        -0.00000   0.00000   0.00000   0.00000  -0.00000
  91        3S          0.00089  -0.01532   0.00050   0.00030   0.00020
  92        3PX        -0.00006   0.00037  -0.00039  -0.00026  -0.00045
  93        3PY         0.00016  -0.00218   0.00016  -0.00005  -0.00001
  94        3PZ         0.00000  -0.00000  -0.00000  -0.00000   0.00000
  95        4XX         0.00046  -0.00908   0.00009   0.00010  -0.00004
  96        4YY         0.00046  -0.00925   0.00009   0.00009  -0.00006
  97        4ZZ         0.00047  -0.00948   0.00004   0.00006  -0.00004
  98        4XY         0.00000  -0.00012  -0.00002  -0.00001  -0.00000
  99        4XZ        -0.00000   0.00000   0.00000   0.00000  -0.00000
 100        4YZ         0.00000  -0.00000   0.00000   0.00000  -0.00000
 101 12  H  1S          0.00002  -0.00036  -0.00002  -0.00002  -0.00004
 102        2S         -0.00007   0.00163   0.00003  -0.00009   0.00008
 103 13  C  1S          0.08067   0.00403   0.03977  -0.04386  -0.03375
 104        2S          0.00343   0.00016   0.00173  -0.00199  -0.00158
 105        2PX         0.00037   0.00001  -0.00018   0.00018   0.00008
 106        2PY        -0.00020  -0.00001  -0.00009   0.00009   0.00008
 107        2PZ        -0.00000   0.00000   0.00000  -0.00000  -0.00000
 108        3S          0.00483   0.00021   0.00264  -0.00217  -0.00176
 109        3PX        -0.00287  -0.00001   0.00190  -0.00127  -0.00060
 110        3PY         0.00066  -0.00000   0.00019   0.00000  -0.00047
 111        3PZ         0.00000  -0.00000  -0.00000   0.00000   0.00000
 112        4XX        -0.00100  -0.00005  -0.00059   0.00067   0.00050
 113        4YY        -0.00105  -0.00005  -0.00056   0.00061   0.00044
 114        4ZZ        -0.00093  -0.00005  -0.00049   0.00051   0.00038
 115        4XY         0.00003   0.00001  -0.00009   0.00012   0.00008
 116        4XZ         0.00000  -0.00000   0.00000  -0.00000  -0.00000
 117        4YZ         0.00000   0.00000   0.00000  -0.00000  -0.00000
 118 14  H  1S         -0.00014  -0.00001  -0.00011   0.00009   0.00003
 119        2S         -0.00017  -0.00001  -0.00015   0.00027  -0.00005
 120 15  C  1S          0.98791   0.04949  -0.00728   0.00780   0.00456
 121        2S          0.04909   0.00245  -0.00044   0.00045   0.00023
 122        2PX        -0.00012  -0.00000  -0.00003   0.00003   0.00001
 123        2PY        -0.00011  -0.00000  -0.00000   0.00001  -0.00000
 124        2PZ         0.00000   0.00000   0.00000  -0.00000  -0.00000
 125        3S         -0.01533  -0.00065   0.00050  -0.00030   0.00020
 126        3PX        -0.00038   0.00002   0.00039  -0.00025   0.00045
 127        3PY         0.00219   0.00006  -0.00016  -0.00005   0.00001
 128        3PZ         0.00000  -0.00000  -0.00000   0.00000   0.00000
 129        4XX        -0.00908  -0.00045   0.00009  -0.00010  -0.00004
 130        4YY        -0.00925  -0.00046   0.00009  -0.00009  -0.00006
 131        4ZZ        -0.00948  -0.00048   0.00004  -0.00005  -0.00004
 132        4XY        -0.00012  -0.00001  -0.00002   0.00001  -0.00000
 133        4XZ        -0.00000  -0.00000   0.00000  -0.00000   0.00000
 134        4YZ         0.00000   0.00000   0.00000  -0.00000  -0.00000
 135 16  H  1S         -0.00036  -0.00002  -0.00002   0.00002  -0.00004
 136        2S          0.00163   0.00009   0.00002   0.00009   0.00008
 137 17  C  1S         -0.00122   0.02435  -0.00040  -0.00036   0.00022
 138        2S         -0.00005   0.00104  -0.00007  -0.00005   0.00001
 139        2PX        -0.00001   0.00027   0.00001  -0.00000  -0.00001
 140        2PY        -0.00000   0.00006   0.00000   0.00000  -0.00000
 141        2PZ        -0.00000   0.00000  -0.00000  -0.00000   0.00000
 142        3S         -0.00018   0.00330   0.00026   0.00021   0.00019
 143        3PX         0.00011  -0.00211  -0.00016  -0.00014  -0.00002
 144        3PY        -0.00001   0.00003  -0.00008  -0.00004  -0.00011
 145        3PZ         0.00000  -0.00000   0.00000   0.00000  -0.00000
 146        4XX         0.00003  -0.00058   0.00001   0.00002  -0.00001
 147        4YY         0.00002  -0.00045  -0.00001  -0.00001   0.00000
 148        4ZZ         0.00001  -0.00029  -0.00002  -0.00001   0.00000
 149        4XY         0.00001  -0.00023  -0.00000  -0.00000   0.00001
 150        4XZ         0.00000  -0.00000   0.00000   0.00000  -0.00000
 151        4YZ         0.00000  -0.00000  -0.00000  -0.00000   0.00000
 152 18  H  1S          0.00001  -0.00015  -0.00001  -0.00000  -0.00001
 153        2S         -0.00003   0.00053  -0.00001   0.00000  -0.00002
 154 19  H  1S          0.00001  -0.00015  -0.00001  -0.00000  -0.00001
 155        2S         -0.00003   0.00053  -0.00001   0.00000  -0.00002
 156 20  H  1S          0.00001  -0.00014  -0.00003  -0.00002   0.00001
 157        2S          0.00003  -0.00041   0.00009   0.00007   0.00000
 158 21  C  1S          0.02435   0.00122  -0.00040   0.00036   0.00023
 159        2S          0.00104   0.00005  -0.00007   0.00005   0.00001
 160        2PX        -0.00027  -0.00002  -0.00001  -0.00000   0.00001
 161        2PY        -0.00006  -0.00000  -0.00000   0.00000   0.00000
 162        2PZ         0.00000   0.00000  -0.00000   0.00000   0.00000
 163        3S          0.00330   0.00015   0.00026  -0.00021   0.00019
 164        3PX         0.00211   0.00010   0.00016  -0.00014   0.00002
 165        3PY        -0.00004   0.00001   0.00009  -0.00004   0.00011
 166        3PZ        -0.00000  -0.00000   0.00000  -0.00000  -0.00000
 167        4XX        -0.00058  -0.00003   0.00001  -0.00002  -0.00001
 168        4YY        -0.00045  -0.00002  -0.00001   0.00001   0.00000
 169        4ZZ        -0.00029  -0.00002  -0.00002   0.00001   0.00000
 170        4XY        -0.00023  -0.00001  -0.00000   0.00000   0.00001
 171        4XZ         0.00000   0.00000  -0.00000   0.00000   0.00000
 172        4YZ         0.00000   0.00000   0.00000  -0.00000  -0.00000
 173 22  H  1S         -0.00015  -0.00001  -0.00001   0.00000  -0.00001
 174        2S          0.00053   0.00002  -0.00001  -0.00000  -0.00002
 175 23  H  1S         -0.00014  -0.00001  -0.00003   0.00002   0.00001
 176        2S         -0.00041  -0.00001   0.00009  -0.00007   0.00000
 177 24  H  1S         -0.00015  -0.00001  -0.00001   0.00000  -0.00001
 178        2S          0.00053   0.00002  -0.00001  -0.00000  -0.00002
                           6         7         8         9        10
                           O         O         O         O         O
     Eigenvalues --   -10.18468 -10.18302 -10.18302 -10.18259 -10.18259
   1 1   C  1S          0.25376  -0.07270   0.01274  -0.00181  -0.00019
   2        2S          0.01301  -0.00399   0.00066  -0.00016  -0.00004
   3        2PX         0.00023   0.00030  -0.00003   0.00004   0.00000
   4        2PY        -0.00021   0.00020  -0.00003  -0.00000  -0.00000
   5        2PZ        -0.00000  -0.00000   0.00000   0.00000   0.00000
   6        3S         -0.00841   0.00695  -0.00040   0.00040   0.00025
   7        3PX        -0.00220  -0.00222   0.00051  -0.00126   0.00003
   8        3PY         0.00126  -0.00090  -0.00022   0.00003  -0.00006
   9        3PZ         0.00000   0.00000  -0.00000   0.00000  -0.00000
  10        4XX        -0.00212   0.00025  -0.00003   0.00002   0.00001
  11        4YY        -0.00214   0.00036  -0.00006  -0.00000  -0.00000
  12        4ZZ        -0.00236   0.00055  -0.00011  -0.00002  -0.00001
  13        4XY        -0.00009  -0.00017   0.00002   0.00004  -0.00000
  14        4XZ        -0.00000   0.00000  -0.00000   0.00000  -0.00000
  15        4YZ         0.00000   0.00000  -0.00000   0.00000   0.00000
  16 2   H  1S         -0.00001  -0.00008   0.00002  -0.00005  -0.00001
  17        2S          0.00054  -0.00045   0.00017   0.00005   0.00002
  18 3   C  1S         -0.65340   0.01391  -0.00404   0.00037   0.00005
  19        2S         -0.03302   0.00070  -0.00022  -0.00002  -0.00001
  20        2PX        -0.00016  -0.00002  -0.00003  -0.00000  -0.00002
  21        2PY        -0.00030   0.00006  -0.00001  -0.00000   0.00000
  22        2PZ        -0.00000  -0.00000   0.00000   0.00000  -0.00000
  23        3S          0.01653  -0.00121   0.00009   0.00068  -0.00012
  24        3PX         0.00097   0.00050   0.00076  -0.00035   0.00013
  25        3PY         0.00234  -0.00044  -0.00016   0.00040   0.00002
  26        3PZ         0.00000  -0.00000   0.00000   0.00000  -0.00000
  27        4XX         0.00563  -0.00006   0.00002   0.00001  -0.00001
  28        4YY         0.00583  -0.00006   0.00001   0.00000   0.00000
  29        4ZZ         0.00615  -0.00014   0.00003  -0.00002  -0.00001
  30        4XY        -0.00004  -0.00003   0.00002  -0.00003   0.00001
  31        4XZ         0.00000  -0.00000   0.00000  -0.00000   0.00000
  32        4YZ         0.00000  -0.00000   0.00000   0.00000  -0.00000
  33 4   H  1S          0.00013  -0.00002  -0.00005  -0.00000  -0.00001
  34        2S         -0.00138  -0.00012   0.00004   0.00015   0.00006
  35 5   C  1S          0.65459   0.00082   0.01447  -0.00004   0.00037
  36        2S          0.03308   0.00003   0.00073   0.00000  -0.00002
  37        2PX        -0.00016   0.00004   0.00001   0.00002   0.00000
  38        2PY        -0.00030  -0.00002  -0.00006  -0.00000   0.00000
  39        2PZ         0.00000   0.00000   0.00000  -0.00000   0.00000
  40        3S         -0.01655  -0.00032  -0.00117  -0.00029   0.00063
  41        3PX         0.00096  -0.00088  -0.00022  -0.00021   0.00031
  42        3PY         0.00235   0.00030   0.00036   0.00008  -0.00039
  43        3PZ        -0.00000  -0.00000  -0.00000  -0.00000   0.00000
  44        4XX        -0.00564  -0.00001  -0.00006  -0.00001   0.00001
  45        4YY        -0.00584  -0.00001  -0.00006   0.00000   0.00000
  46        4ZZ        -0.00616  -0.00001  -0.00014  -0.00001  -0.00002
  47        4XY         0.00004   0.00000  -0.00003   0.00002  -0.00002
  48        4XZ         0.00000  -0.00000   0.00000  -0.00000   0.00000
  49        4YZ         0.00000   0.00000   0.00000   0.00000  -0.00000
  50 6   H  1S         -0.00013  -0.00005  -0.00000  -0.00001  -0.00001
  51        2S          0.00138  -0.00000  -0.00012   0.00002   0.00017
  52 7   C  1S         -0.25437  -0.01218  -0.07280   0.00025  -0.00180
  53        2S         -0.01304  -0.00071  -0.00398   0.00000  -0.00017
  54        2PX         0.00023  -0.00007  -0.00030   0.00001  -0.00004
  55        2PY        -0.00021  -0.00004  -0.00020   0.00000   0.00000
  56        2PZ         0.00000  -0.00000  -0.00000   0.00000  -0.00000
  57        3S          0.00843   0.00194   0.00669   0.00014   0.00045
  58        3PX        -0.00221   0.00026   0.00227  -0.00034   0.00121
  59        3PY         0.00126   0.00051   0.00077   0.00006  -0.00001
  60        3PZ        -0.00000   0.00000   0.00000  -0.00000   0.00000
  61        4XX         0.00213   0.00005   0.00024   0.00000   0.00002
  62        4YY         0.00215   0.00006   0.00036  -0.00000  -0.00000
  63        4ZZ         0.00237   0.00008   0.00055  -0.00001  -0.00002
  64        4XY         0.00009  -0.00004  -0.00016  -0.00001   0.00004
  65        4XZ        -0.00000  -0.00000  -0.00000   0.00000   0.00000
  66        4YZ         0.00000  -0.00000  -0.00000  -0.00000   0.00000
  67 8   H  1S          0.00001  -0.00001  -0.00008   0.00000  -0.00005
  68        2S         -0.00054   0.00001  -0.00048   0.00000   0.00005
  69 9   C  1S         -0.02934   0.16658   0.97214  -0.00336   0.02801
  70        2S         -0.00141   0.00834   0.04860  -0.00017   0.00134
  71        2PX        -0.00010  -0.00000  -0.00008   0.00001  -0.00007
  72        2PY        -0.00005  -0.00004  -0.00020   0.00001  -0.00008
  73        2PZ        -0.00000  -0.00000  -0.00000   0.00000  -0.00000
  74        3S         -0.00058  -0.00323  -0.01706   0.00015  -0.00093
  75        3PX         0.00115   0.00009   0.00013  -0.00011   0.00059
  76        3PY        -0.00010   0.00050   0.00249  -0.00008   0.00035
  77        3PZ         0.00000   0.00000   0.00000  -0.00000   0.00000
  78        4XX         0.00043  -0.00153  -0.00884   0.00003  -0.00027
  79        4YY         0.00037  -0.00155  -0.00907   0.00002  -0.00020
  80        4ZZ         0.00032  -0.00160  -0.00935   0.00004  -0.00034
  81        4XY         0.00005  -0.00001  -0.00009   0.00001  -0.00009
  82        4XZ         0.00000   0.00000   0.00000   0.00000  -0.00000
  83        4YZ         0.00000  -0.00000  -0.00000   0.00000  -0.00000
  84 10  H  1S          0.00007  -0.00006  -0.00032   0.00001  -0.00005
  85        2S         -0.00005   0.00029   0.00166   0.00003  -0.00015
  86 11  C  1S          0.00353  -0.01347  -0.07868   0.00327  -0.02679
  87        2S          0.00022  -0.00077  -0.00444   0.00019  -0.00156
  88        2PX         0.00003   0.00006   0.00032   0.00003  -0.00022
  89        2PY         0.00001  -0.00003  -0.00021   0.00002  -0.00015
  90        2PZ         0.00000  -0.00000  -0.00000   0.00000  -0.00000
  91        3S         -0.00075   0.00121   0.00660  -0.00061   0.00494
  92        3PX        -0.00016  -0.00061  -0.00282  -0.00034   0.00248
  93        3PY        -0.00040   0.00010   0.00072  -0.00013   0.00110
  94        3PZ        -0.00000  -0.00000  -0.00000  -0.00000   0.00000
  95        4XX        -0.00004   0.00008   0.00045   0.00002  -0.00015
  96        4YY        -0.00004   0.00008   0.00044  -0.00001   0.00008
  97        4ZZ        -0.00002   0.00010   0.00063  -0.00001   0.00010
  98        4XY         0.00001   0.00001   0.00009   0.00001  -0.00011
  99        4XZ         0.00000   0.00000   0.00000   0.00000  -0.00000
 100        4YZ        -0.00000  -0.00000  -0.00000   0.00000  -0.00000
 101 12  H  1S         -0.00003  -0.00003  -0.00009   0.00001  -0.00010
 102        2S         -0.00002  -0.00009  -0.00046   0.00000   0.00004
 103 13  C  1S          0.02928   0.97216  -0.16649   0.02797   0.00347
 104        2S          0.00141   0.04861  -0.00831   0.00134   0.00016
 105        2PX        -0.00010   0.00007  -0.00002   0.00007   0.00001
 106        2PY        -0.00005   0.00020  -0.00003   0.00008   0.00001
 107        2PZ         0.00000  -0.00000   0.00000  -0.00000  -0.00000
 108        3S          0.00058  -0.01716   0.00264  -0.00094  -0.00008
 109        3PX         0.00115  -0.00015  -0.00004  -0.00060  -0.00004
 110        3PY        -0.00010  -0.00251   0.00036  -0.00036  -0.00001
 111        3PZ        -0.00000   0.00000  -0.00000   0.00000   0.00000
 112        4XX        -0.00042  -0.00884   0.00150  -0.00027  -0.00003
 113        4YY        -0.00037  -0.00907   0.00156  -0.00020  -0.00002
 114        4ZZ        -0.00032  -0.00935   0.00160  -0.00034  -0.00004
 115        4XY        -0.00005  -0.00009   0.00002  -0.00009  -0.00001
 116        4XZ         0.00000  -0.00000   0.00000  -0.00000  -0.00000
 117        4YZ         0.00000   0.00000  -0.00000   0.00000   0.00000
 118 14  H  1S         -0.00007  -0.00032   0.00005  -0.00005  -0.00001
 119        2S          0.00005   0.00166  -0.00028  -0.00016  -0.00001
 120 15  C  1S         -0.00352  -0.07867   0.01348  -0.02678  -0.00327
 121        2S         -0.00022  -0.00444   0.00075  -0.00156  -0.00019
 122        2PX         0.00003  -0.00033   0.00005   0.00022   0.00002
 123        2PY         0.00001   0.00021  -0.00004   0.00015   0.00002
 124        2PZ        -0.00000  -0.00000  -0.00000  -0.00000  -0.00000
 125        3S          0.00075   0.00663  -0.00105   0.00494   0.00059
 126        3PX        -0.00016   0.00286  -0.00036  -0.00249  -0.00026
 127        3PY        -0.00040  -0.00072   0.00015  -0.00110  -0.00013
 128        3PZ         0.00000  -0.00000   0.00000   0.00000   0.00000
 129        4XX         0.00004   0.00046  -0.00007  -0.00015  -0.00002
 130        4YY         0.00004   0.00044  -0.00008   0.00008   0.00001
 131        4ZZ         0.00002   0.00063  -0.00011   0.00011   0.00001
 132        4XY        -0.00001   0.00009  -0.00002  -0.00011  -0.00002
 133        4XZ         0.00000   0.00000  -0.00000   0.00000   0.00000
 134        4YZ        -0.00000   0.00000  -0.00000   0.00000   0.00000
 135 16  H  1S          0.00003  -0.00010   0.00001  -0.00010  -0.00002
 136        2S          0.00002  -0.00047   0.00007   0.00004   0.00001
 137 17  C  1S          0.00021  -0.00518  -0.02991  -0.12012   0.98485
 138        2S         -0.00001  -0.00028  -0.00158  -0.00606   0.04963
 139        2PX        -0.00002  -0.00001  -0.00001   0.00000  -0.00003
 140        2PY        -0.00001   0.00000   0.00001   0.00001  -0.00006
 141        2PZ         0.00000   0.00000   0.00000   0.00000  -0.00000
 142        3S          0.00035   0.00019   0.00068   0.00218  -0.01755
 143        3PX        -0.00012   0.00000   0.00011  -0.00015   0.00108
 144        3PY        -0.00004  -0.00008  -0.00030  -0.00008   0.00056
 145        3PZ        -0.00000  -0.00000  -0.00000  -0.00000   0.00000
 146        4XX         0.00000   0.00006   0.00034   0.00111  -0.00911
 147        4YY        -0.00000   0.00005   0.00030   0.00110  -0.00905
 148        4ZZ         0.00000   0.00004   0.00025   0.00110  -0.00905
 149        4XY         0.00001   0.00001   0.00003   0.00000  -0.00002
 150        4XZ        -0.00000  -0.00000  -0.00000  -0.00000   0.00000
 151        4YZ        -0.00000   0.00000   0.00000   0.00000  -0.00000
 152 18  H  1S         -0.00001  -0.00000  -0.00000   0.00000  -0.00002
 153        2S         -0.00000  -0.00003  -0.00015  -0.00033   0.00270
 154 19  H  1S         -0.00001  -0.00000  -0.00000   0.00000  -0.00002
 155        2S         -0.00000  -0.00003  -0.00015  -0.00033   0.00270
 156 20  H  1S         -0.00000   0.00001   0.00003   0.00000  -0.00003
 157        2S         -0.00005  -0.00001  -0.00004  -0.00032   0.00267
 158 21  C  1S         -0.00021  -0.02990   0.00507   0.98485   0.12012
 159        2S          0.00001  -0.00158   0.00026   0.04963   0.00605
 160        2PX        -0.00002   0.00001   0.00000   0.00003   0.00000
 161        2PY        -0.00001  -0.00001   0.00000   0.00006   0.00001
 162        2PZ        -0.00000  -0.00000   0.00000   0.00000   0.00000
 163        3S         -0.00035   0.00070  -0.00005  -0.01755  -0.00210
 164        3PX        -0.00012  -0.00011   0.00004  -0.00108  -0.00012
 165        3PY        -0.00004   0.00031  -0.00003  -0.00056  -0.00006
 166        3PZ         0.00000   0.00000  -0.00000  -0.00000  -0.00000
 167        4XX        -0.00000   0.00034  -0.00006  -0.00911  -0.00111
 168        4YY         0.00000   0.00030  -0.00005  -0.00905  -0.00110
 169        4ZZ        -0.00000   0.00025  -0.00004  -0.00905  -0.00111
 170        4XY        -0.00001   0.00003  -0.00000  -0.00002  -0.00000
 171        4XZ        -0.00000  -0.00000   0.00000   0.00000   0.00000
 172        4YZ         0.00000  -0.00000   0.00000  -0.00000  -0.00000
 173 22  H  1S          0.00001  -0.00000  -0.00000  -0.00002  -0.00000
 174        2S          0.00000  -0.00015   0.00002   0.00270   0.00033
 175 23  H  1S          0.00000   0.00003  -0.00000  -0.00003  -0.00000
 176        2S          0.00005  -0.00004   0.00001   0.00267   0.00033
 177 24  H  1S          0.00001  -0.00000  -0.00000  -0.00002  -0.00000
 178        2S          0.00000  -0.00015   0.00002   0.00270   0.00033
                          11        12        13        14        15
                           O         O         O         O         O
     Eigenvalues --    -0.81846  -0.80162  -0.77580  -0.74090  -0.69699
   1 1   C  1S         -0.09126  -0.07292   0.02982   0.09173   0.03318
   2        2S          0.17639   0.14181  -0.05856  -0.18137  -0.06688
   3        2PX         0.01780  -0.02685  -0.07274  -0.02263   0.09640
   4        2PY        -0.03125  -0.02361   0.01272   0.03123   0.00560
   5        2PZ         0.00000   0.00000   0.00001   0.00000  -0.00001
   6        3S          0.12108   0.08949  -0.04335  -0.11564  -0.03268
   7        3PX         0.00034  -0.01715  -0.02716  -0.00704   0.03903
   8        3PY         0.00450   0.01040  -0.00071  -0.02153  -0.01506
   9        3PZ         0.00000   0.00000   0.00000  -0.00000  -0.00001
  10        4XX         0.00514   0.00410   0.00040  -0.00040  -0.00067
  11        4YY         0.00030   0.00046  -0.00026  -0.00139  -0.00073
  12        4ZZ        -0.00982  -0.00771   0.00289   0.00895   0.00318
  13        4XY        -0.00112   0.00180   0.00458   0.00157  -0.00567
  14        4XZ        -0.00000  -0.00000   0.00000   0.00000   0.00000
  15        4YZ         0.00000   0.00000  -0.00000  -0.00000   0.00000
  16 2   H  1S          0.04388   0.03578  -0.01461  -0.04790  -0.01975
  17        2S          0.00472   0.00203  -0.00116   0.00059  -0.00003
  18 3   C  1S         -0.09980  -0.03039   0.08383   0.05484  -0.06008
  19        2S          0.19321   0.05854  -0.16387  -0.10818   0.12025
  20        2PX        -0.00226  -0.05014  -0.02408   0.08746   0.06303
  21        2PY         0.03366   0.01199  -0.02750  -0.02198   0.01586
  22        2PZ         0.00001   0.00000  -0.00001  -0.00001   0.00000
  23        3S          0.12712   0.05148  -0.10633  -0.07331   0.07236
  24        3PX         0.00519  -0.01493  -0.01317   0.03322   0.02953
  25        3PY        -0.00649   0.00245   0.01586   0.01051  -0.02015
  26        3PZ         0.00000   0.00000  -0.00000  -0.00000  -0.00000
  27        4XX         0.00568   0.00074  -0.00316   0.00100  -0.00046
  28        4YY         0.00033   0.00009  -0.00077  -0.00081   0.00130
  29        4ZZ        -0.01072  -0.00318   0.00862   0.00528  -0.00571
  30        4XY        -0.00011  -0.00319  -0.00137   0.00538   0.00367
  31        4XZ        -0.00000  -0.00000   0.00000   0.00000   0.00000
  32        4YZ         0.00000   0.00000   0.00000  -0.00000  -0.00000
  33 4   H  1S          0.04805   0.01467  -0.04200  -0.02790   0.03427
  34        2S          0.00516   0.00158  -0.00036   0.00064  -0.00031
  35 5   C  1S         -0.09980   0.03038   0.08383  -0.05484  -0.06009
  36        2S          0.19322  -0.05852  -0.16388   0.10816   0.12026
  37        2PX         0.00226  -0.05014   0.02408   0.08747  -0.06302
  38        2PY        -0.03366   0.01198   0.02750  -0.02197  -0.01586
  39        2PZ         0.00001  -0.00001  -0.00000   0.00001  -0.00000
  40        3S          0.12713  -0.05147  -0.10633   0.07330   0.07236
  41        3PX        -0.00519  -0.01493   0.01316   0.03323  -0.02953
  42        3PY         0.00649   0.00245  -0.01586   0.01051   0.02015
  43        3PZ         0.00000  -0.00000  -0.00000   0.00000  -0.00000
  44        4XX         0.00568  -0.00074  -0.00316  -0.00100  -0.00046
  45        4YY         0.00033  -0.00009  -0.00077   0.00081   0.00130
  46        4ZZ        -0.01072   0.00318   0.00862  -0.00528  -0.00571
  47        4XY        -0.00011   0.00319  -0.00137  -0.00538   0.00367
  48        4XZ         0.00000  -0.00000  -0.00000   0.00000  -0.00000
  49        4YZ        -0.00000   0.00000   0.00000  -0.00000   0.00000
  50 6   H  1S          0.04805  -0.01466  -0.04200   0.02790   0.03427
  51        2S          0.00516  -0.00158  -0.00036  -0.00064  -0.00031
  52 7   C  1S         -0.09127   0.07291   0.02983  -0.09173   0.03318
  53        2S          0.17640  -0.14179  -0.05858   0.18137  -0.06687
  54        2PX        -0.01780  -0.02685   0.07274  -0.02262  -0.09640
  55        2PY         0.03125  -0.02361  -0.01272   0.03123  -0.00560
  56        2PZ        -0.00000  -0.00000   0.00001  -0.00000  -0.00001
  57        3S          0.12108  -0.08947  -0.04336   0.11564  -0.03268
  58        3PX        -0.00033  -0.01715   0.02716  -0.00704  -0.03903
  59        3PY        -0.00450   0.01040   0.00071  -0.02153   0.01506
  60        3PZ         0.00000  -0.00000   0.00000  -0.00000  -0.00001
  61        4XX         0.00514  -0.00410   0.00040   0.00040  -0.00067
  62        4YY         0.00030  -0.00046  -0.00026   0.00139  -0.00073
[...]
     5  C    0.570714  -0.055318  -0.009569  -0.006360   0.002921   0.000463
     6  H   -0.056532   0.006247  -0.007790   0.005276   0.000404   0.000014
     7  C    4.909799   0.362851   0.426612  -0.053323  -0.017758  -0.010464
     8  H    0.362851   0.618061  -0.053679   0.005461  -0.006226   0.005729
     9  C    0.426612  -0.053679   4.808853   0.361201   0.642446  -0.046629
    10  H   -0.053323   0.005461   0.361201   0.621674  -0.054123   0.006644
    11  C   -0.017758  -0.006226   0.642446  -0.054123   4.908735   0.364757
    12  H   -0.010464   0.005729  -0.046629   0.006644   0.364757   0.610000
    13  C   -0.000222  -0.000002   0.000001  -0.000000  -0.000000   0.000000
    14  H   -0.000002   0.000001  -0.000000  -0.000000   0.000000  -0.000000
    15  C    0.000003  -0.000000  -0.000000   0.000000  -0.000000   0.000000
    16  H   -0.000000  -0.000000   0.000000  -0.000000   0.000000   0.000000
    17  C    0.004231   0.000101  -0.017619  -0.009873   0.363437  -0.057110
    18  H   -0.000104  -0.000000  -0.000970   0.000118  -0.030791  -0.000703
    19  H   -0.000104  -0.000000  -0.000967   0.000118  -0.030793  -0.000705
    20  H    0.000189   0.000012  -0.005541   0.006624  -0.035886   0.004638
    21  C   -0.000000   0.000000   0.000000   0.000000  -0.000000  -0.000000
    22  H   -0.000000   0.000000  -0.000000  -0.000000   0.000000   0.000000
    23  H    0.000000  -0.000000   0.000000   0.000000  -0.000000   0.000000
    24  H   -0.000000   0.000000  -0.000000  -0.000000   0.000000   0.000000
              13         14         15         16         17         18
     1  C    0.426611  -0.053322  -0.017760  -0.010464  -0.000000  -0.000000
     2  H   -0.053678   0.005461  -0.006226   0.005729   0.000000   0.000000
     3  C   -0.009570  -0.006360   0.002921   0.000463   0.000002  -0.000000
     4  H   -0.007789   0.005275   0.000404   0.000014  -0.000000   0.000000
     5  C    0.003325   0.000280  -0.000241  -0.000000  -0.000219   0.000004
     6  H    0.000258   0.000009  -0.000001   0.000001  -0.000005   0.000000
     7  C   -0.000222  -0.000002   0.000003  -0.000000   0.004231  -0.000104
     8  H   -0.000002   0.000001  -0.000000  -0.000000   0.000101  -0.000000
     9  C    0.000001  -0.000000  -0.000000   0.000000  -0.017619  -0.000970
    10  H   -0.000000  -0.000000   0.000000  -0.000000  -0.009873   0.000118
    11  C   -0.000000   0.000000  -0.000000   0.000000   0.363437  -0.030791
    12  H    0.000000  -0.000000   0.000000   0.000000  -0.057110  -0.000703
    13  C    4.808856   0.361201   0.642444  -0.046630   0.000000  -0.000000
    14  H    0.361201   0.621674  -0.054123   0.006644   0.000000  -0.000000
    15  C    0.642444  -0.054123   4.908737   0.364756  -0.000000   0.000000
    16  H   -0.046630   0.006644   0.364756   0.609994  -0.000000   0.000000
    17  C    0.000000   0.000000  -0.000000  -0.000000   5.099657   0.366900
    18  H   -0.000000  -0.000000   0.000000   0.000000   0.366900   0.573258
    19  H   -0.000000  -0.000000   0.000000   0.000000   0.366900  -0.037152
    20  H    0.000000   0.000000  -0.000000   0.000000   0.373852  -0.028179
    21  C   -0.017619  -0.009873   0.363436  -0.057105   0.000000  -0.000000
    22  H   -0.000961   0.000118  -0.030784  -0.000709  -0.000000   0.000000
    23  H   -0.005541   0.006624  -0.035884   0.004637   0.000000  -0.000000
    24  H   -0.000976   0.000118  -0.030798  -0.000699  -0.000000  -0.000000
              19         20         21         22         23         24
     1  C   -0.000000   0.000000   0.004231  -0.000104   0.000189  -0.000104
     2  H    0.000000  -0.000000   0.000101  -0.000000   0.000012  -0.000000
     3  C   -0.000000   0.000000  -0.000219   0.000004   0.000006   0.000004
     4  H    0.000000  -0.000000  -0.000005   0.000000   0.000000   0.000000
     5  C    0.000004   0.000006   0.000002  -0.000000   0.000000  -0.000000
     6  H    0.000000   0.000000  -0.000000   0.000000  -0.000000   0.000000
     7  C   -0.000104   0.000189  -0.000000  -0.000000   0.000000  -0.000000
     8  H   -0.000000   0.000012   0.000000   0.000000  -0.000000   0.000000
     9  C   -0.000967  -0.005541   0.000000  -0.000000   0.000000  -0.000000
    10  H    0.000118   0.006624   0.000000  -0.000000   0.000000  -0.000000
    11  C   -0.030793  -0.035886  -0.000000   0.000000  -0.000000   0.000000
    12  H   -0.000705   0.004638  -0.000000   0.000000   0.000000   0.000000
    13  C   -0.000000   0.000000  -0.017619  -0.000961  -0.005541  -0.000976
    14  H   -0.000000   0.000000  -0.009873   0.000118   0.006624   0.000118
    15  C    0.000000  -0.000000   0.363436  -0.030784  -0.035884  -0.030798
    16  H    0.000000   0.000000  -0.057105  -0.000709   0.004637  -0.000699
    17  C    0.366900   0.373852   0.000000  -0.000000   0.000000  -0.000000
    18  H   -0.037152  -0.028179  -0.000000   0.000000  -0.000000  -0.000000
    19  H    0.573275  -0.028183  -0.000000  -0.000000  -0.000000   0.000000
    20  H   -0.028183   0.558432   0.000000  -0.000000   0.000000  -0.000000
    21  C   -0.000000   0.000000   5.099656   0.366902   0.373853   0.366897
    22  H   -0.000000  -0.000000   0.366902   0.573265  -0.028182  -0.037151
    23  H   -0.000000   0.000000   0.373853  -0.028182   0.558431  -0.028183
    24  H    0.000000  -0.000000   0.366897  -0.037151  -0.028183   0.573270
 Mulliken charges:
               1
     1  C   -0.124626
     2  H    0.119169
     3  C   -0.125721
     4  H    0.119120
     5  C   -0.125725
     6  H    0.119119
     7  C   -0.124624
     8  H    0.119169
     9  C   -0.099708
    10  H    0.116275
    11  C   -0.106883
    12  H    0.123367
    13  C   -0.099709
    14  H    0.116275
    15  C   -0.106883
    16  H    0.123369
    17  C   -0.490253
    18  H    0.157619
    19  H    0.157608
    20  H    0.154036
    21  C   -0.490255
    22  H    0.157604
    23  H    0.154038
    24  H    0.157622
 Sum of Mulliken charges =  -0.00000
 Mulliken charges with hydrogens summed into heavy atoms:
               1
     1  C   -0.005458
     3  C   -0.006601
     5  C   -0.006606
     7  C   -0.005455
     9  C    0.016567
    11  C    0.016484
    13  C    0.016566
    15  C    0.016485
    17  C   -0.020990
    21  C   -0.020992
 Electronic spatial extent (au):  <R**2>=           3984.2764
 Charge=              0.0000 electrons
 Dipole moment (field-independent basis, Debye):
    X=              0.0000    Y=             -0.0000    Z=              0.0003  Tot=              0.0003
 Quadrupole moment (field-independent basis, Debye-Ang):
   XX=            -50.7213   YY=            -57.0632   ZZ=            -66.2176
   XY=             -0.7633   XZ=             -0.0005   YZ=              0.0001
 Traceless Quadrupole moment (field-independent basis, Debye-Ang):
   XX=              7.2794   YY=              0.9375   ZZ=             -8.2169
   XY=             -0.7633   XZ=             -0.0005   YZ=              0.0001
 Octapole moment (field-independent basis, Debye-Ang**2):
  XXX=              0.0010  YYY=              0.0001  ZZZ=              0.0034  XYY=             -0.0001
  XXY=             -0.0015  XXZ=              0.0073  XZZ=              0.0002  YZZ=             -0.0001
  YYZ=             -0.0012  XYZ=             -0.0008
 Hexadecapole moment (field-independent basis, Debye-Ang**3):
 XXXX=          -4827.8708 YYYY=           -169.6853 ZZZZ=            -81.8969 XXXY=            -35.5872
 XXXZ=             -0.0080 YYYX=              1.0273 YYYZ=              0.0012 ZZZX=             -0.0093
 ZZZY=             -0.0003 XXYY=           -870.8474 XXZZ=           -910.0950 YYZZ=            -46.3098
 XXYZ=             -0.0051 YYXZ=              0.0057 ZZXY=             -2.1025
 N-N= 4.278104001570D+02 E-N=-1.755800466762D+03  KE= 3.855041902411D+02
 Orbital energies and kinetic energies (alpha):
                                 1                 2
   1         O               -10.187917         15.880016
   2         O               -10.187916         15.880012
   3         O               -10.185839         15.873597
   4         O               -10.185768         15.876203
   5         O               -10.185001         15.882336
   6         O               -10.184680         15.887979
   7         O               -10.183019         15.881831
   8         O               -10.183019         15.881820
   9         O               -10.182592         15.882218
  10         O               -10.182592         15.882213
  11         O                -0.818464          1.509209
  12         O                -0.801621          1.503042
  13         O                -0.775797          1.493565
  14         O                -0.740904          1.484369
  15         O                -0.696988          1.465666
  16         O                -0.660257          1.560119
  17         O                -0.592671          1.565244
  18         O                -0.557429          1.036592
  19         O                -0.544391          1.122446
  20         O                -0.544087          1.402309
  21         O                -0.474037          1.183634
  22         O                -0.466148          1.106906
  23         O                -0.430738          1.144355
  24         O                -0.429922          1.368524
  25         O                -0.410239          0.943257
  26         O                -0.410152          0.943746
  27         O                -0.398724          1.177788
  28         O                -0.383322          1.376946
  29         O                -0.369563          1.178207
  30         O                -0.362071          1.422831
  31         O                -0.355081          1.171800
  32         O                -0.345260          1.181293
  33         O                -0.338034          1.283847
  34         O                -0.335722          0.969908
  35         O                -0.299905          1.024962
  36         O                -0.247485          1.106839
  37         O                -0.184173          1.216468
  38         V                -0.047890          1.315840
  39         V                 0.027441          1.422759
  40         V                 0.086888          1.452204
  41         V                 0.095623          0.853310
  42         V                 0.114122          1.333170
  43         V                 0.117026          0.919231
  44         V                 0.118772          0.968430
  45         V                 0.119186          0.941574
  46         V                 0.150434          0.965154
  47         V                 0.152535          1.078076
  48         V                 0.157850          1.062978
  49         V                 0.162410          1.100827
  50         V                 0.173151          1.103558
  51         V                 0.173577          0.901760
  52         V                 0.173845          0.911736
  53         V                 0.177529          0.986134
  54         V                 0.201681          1.176915
  55         V                 0.202141          1.177322
  56         V                 0.248250          2.048061
  57         V                 0.264338          1.674558
  58         V                 0.316417          1.681972
  59         V                 0.355845          1.371564
  60         V                 0.360216          1.090895
  61         V                 0.379470          1.668365
  62         V                 0.410414          1.394599
  63         V                 0.426245          1.887274
  64         V                 0.430404          1.838392
  65         V                 0.481794          1.606930
  66         V                 0.494524          1.927646
  67         V                 0.524048          1.937771
  68         V                 0.533057          1.877977
  69         V                 0.556265          1.847307
  70         V                 0.571998          2.309297
  71         V                 0.572055          2.303426
  72         V                 0.575443          2.066835
  73         V                 0.593012          2.205359
  74         V                 0.598006          1.598364
  75         V                 0.614268          2.054112
  76         V                 0.614553          2.147913
  77         V                 0.617019          2.046302
  78         V                 0.619176          2.098042
  79         V                 0.647991          2.374619
  80         V                 0.657197          2.076456
  81         V                 0.678186          2.212325
  82         V                 0.686458          2.038739
  83         V                 0.730398          2.064574
  84         V                 0.732505          2.077976
  85         V                 0.738738          2.235600
  86         V                 0.753210          2.167522
  87         V                 0.776268          2.566871
  88         V                 0.777406          2.558851
  89         V                 0.828905          2.768214
  90         V                 0.854680          2.802760
  91         V                 0.865042          2.551908
  92         V                 0.874810          2.544964
  93         V                 0.875928          2.522018
  94         V                 0.877709          2.511955
  95         V                 0.887321          2.852932
  96         V                 0.889067          2.554430
  97         V                 0.901974          2.637211
  98         V                 0.903771          2.504881
  99         V                 0.915302          2.710857
 100         V                 0.920360          2.753965
 101         V                 0.944549          2.561759
 102         V                 0.951664          2.692227
 103         V                 0.965795          2.627892
 104         V                 0.979850          2.458588
 105         V                 1.047753          2.518860
 106         V                 1.051319          2.285962
 107         V                 1.056346          2.101361
 108         V                 1.097299          2.212369
 109         V                 1.137918          2.227744
 110         V                 1.169562          2.233199
 111         V                 1.236905          2.462880
 112         V                 1.246385          2.344273
 113         V                 1.315312          2.363750
 114         V                 1.322792          2.500668
 115         V                 1.330665          2.487381
 116         V                 1.334377          2.502247
 117         V                 1.353478          2.516331
 118         V                 1.365241          2.509669
 119         V                 1.398057          2.553030
 120         V                 1.400105          2.413755
 121         V                 1.440757          2.574697
 122         V                 1.465565          2.645186
 123         V                 1.519676          2.676852
 124         V                 1.522482          2.741778
 125         V                 1.596614          2.768047
 126         V                 1.671691          2.852851
 127         V                 1.731515          2.917243
 128         V                 1.771037          2.994098
 129         V                 1.775242          3.011441
 130         V                 1.831332          3.212558
 131         V                 1.853997          3.108586
 132         V                 1.858681          3.222039
 133         V                 1.890140          3.008310
 134         V                 1.906771          3.238440
 135         V                 1.929066          3.244254
 136         V                 1.935982          3.080394
 137         V                 1.947954          3.324809
 138         V                 2.003359          3.361091
 139         V                 2.011342          3.352775
 140         V                 2.017815          3.198454
 141         V                 2.102254          3.582647
 142         V                 2.123708          3.351778
 143         V                 2.153196          3.615956
 144         V                 2.170392          3.562595
 145         V                 2.180195          3.516893
 146         V                 2.233075          3.519242
 147         V                 2.272204          3.686046
 148         V                 2.278043          3.740159
 149         V                 2.314400          3.641443
 150         V                 2.317159          3.827993
 151         V                 2.354945          3.646546
 152         V                 2.368023          3.829010
 153         V                 2.384793          3.879159
 154         V                 2.396026          3.843878
 155         V                 2.448724          3.712508
 156         V                 2.481878          3.731105
 157         V                 2.509161          3.768188
 158         V                 2.514397          3.770918
 159         V                 2.555173          4.115211
 160         V                 2.634214          4.368276
 161         V                 2.808660          4.711466
 162         V                 2.814023          4.601721
 163         V                 2.894012          4.637579
 164         V                 2.932695          4.736304
 165         V                 2.971015          4.789389
 166         V                 2.992466          4.716668
 167         V                 3.103638          4.942557
 168         V                 3.105169          4.951779
 169         V                 4.096736         10.183885
 170         V                 4.104344         10.182775
 171         V                 4.122524         10.184795
 172         V                 4.153015         10.180838
 173         V                 4.186628         10.158296
 174         V                 4.275272         10.172639
 175         V                 4.326011         10.157282
 176         V                 4.389052         10.130402
 177         V                 4.471915         10.107135
 178         V                 4.548327         10.082719
 Total kinetic energy from orbitals= 3.855041902411D+02
 Leave Link  601 at Sun Jun  6 19:43:25 2021, MaxMem=    33554432 cpu:         0.3
 (Enter /opt/app/gaussian09/e01/g09/l9999.exe)
 1\1\GINC-NB-0155\SP\RB3LYP TD-FC\6-31G(d)\C10H14\ROOT\06-Jun-2021\0\\#
 p td(NStates=10) b3lyp/6-31g(d) nosymm pop=full\\Title Card Required\\
 0,1\C,0,-1.8247024,0.37094586,-0.00015641\H,0,-1.79932125,1.46178013,-
 0.00007507\C,0,-0.65070855,-0.30864447,-0.00028437\H,0,-0.6774416,-1.3
 9953575,-0.00021769\C,0,0.65070851,0.30861841,-0.00026217\H,0,0.677433
 46,1.39951061,-0.0002108\C,0,1.82470978,-0.37095295,-0.000106\H,0,1.79
 935939,-1.46178748,-0.00004445\C,0,3.13084089,0.24989356,0.00008233\H,
 0,3.15280706,1.34127674,0.0000588\C,0,4.29732379,-0.42352205,0.0001134
 9\H,0,4.26892094,-1.51450967,0.0001467\C,0,-3.13084732,-0.24987442,0.0
 0000127\H,0,-3.1528349,-1.34125999,-0.00015839\C,0,-4.29732577,0.42355
 461,0.00007158\H,0,-4.26890515,1.51453952,0.00011464\C,0,5.65710561,0.
 20598032,0.00016806\H,0,6.23991355,-0.10097171,0.88010148\H,0,6.240040
 23,-0.1012325,-0.87962273\H,0,5.59542683,1.29950588,-0.0000373\C,0,-5.
 65710509,-0.20598901,0.00021912\H,0,-6.24041256,0.10175848,-0.87910644
 \H,0,-5.59541953,-1.29951321,-0.00064597\H,0,-6.23956323,0.1003797,0.8
 8061588\\Version=ES64L-G09RevE.01\HF=-389.4459613\RMSD=6.509e-09\PG=C0
 1 [X(C10H14)]\\@


 NATURE GIVES TO EVERY TIME AND SEASON SOME BEAUTY OF ITS OWN.

                                                    --DICKENS
 Job cpu time:       0 days  0 hours  5 minutes 25.1 seconds.
 File lengths (MBytes):  RWF=     98 Int=      0 D2E=      0 Chk=     14 Scr=      1
 Normal termination of Gaussian 09 at Sun Jun  6 19:43:25 2021.
