Title Card Required                                                     
FOpt      RB3LYP                                                      6-31G(d)            
Number of atoms                            I               24
Info1-9                                    I   N=           9
          56          56           0           0           0         110
           2          18        -502
Charge                                     I                0
Multiplicity                               I                1
Number of electrons                        I               74
Number of alpha electrons                  I               37
Number of beta electrons                   I               37
Number of basis functions                  I              178
Number of independent functions            I              178
Number of point charges in /Mol/           I                0
Number of translation vectors              I                0
Atomic numbers                             I   N=          24
           6           1           6           1           6           1
           6           1           6           1           6           1
           6           1           6           1           6           1
           1           1           6           1           1           1
Nuclear charges                            R   N=          24
  6.00000000E+00  1.00000000E+00  6.00000000E+00  1.00000000E+00  6.00000000E+00
  1.00000000E+00  6.00000000E+00  1.00000000E+00  6.00000000E+00  1.00000000E+00
  6.00000000E+00  1.00000000E+00  6.00000000E+00  1.00000000E+00  6.00000000E+00
  1.00000000E+00  6.00000000E+00  1.00000000E+00  1.00000000E+00  1.00000000E+00
  6.00000000E+00  1.00000000E+00  1.00000000E+00  1.00000000E+00
Current cartesian coordinates              R   N=          72
 -3.44818754E+00  7.00986041E-01 -2.95575812E-04 -3.40022412E+00  2.76236390E+00
 -1.41861261E-04 -1.22966086E+00 -5.83253470E-01 -5.37381193E-04 -1.28017899E+00
 -2.64473907E+00 -4.11381899E-04  1.22966078E+00  5.83204238E-01 -4.95434886E-04
  1.28016362E+00  2.64469158E+00 -3.98357941E-04  3.44820149E+00 -7.00999421E-01
 -2.00312633E-04  3.40029620E+00 -2.76237780E+00 -8.40043262E-05  5.91643140E+00
  4.72230353E-01  1.55586832E-04  5.95794144E+00  2.53464551E+00  1.11119180E-04
  8.12076444E+00 -8.00340628E-01  2.14458766E-04  8.06709084E+00 -2.86200828E+00
  2.77223968E-04 -5.91644355E+00 -4.72194189E-01  2.40835231E-06 -5.95799405E+00
 -2.53461386E+00 -2.99309522E-04 -8.12076818E+00  8.00402153E-01  1.35267294E-04
 -8.06706100E+00  2.86206470E+00  2.16641081E-04  1.06903795E+01  3.89246368E-01
  3.17578842E-04  1.17917268E+01 -1.90808868E-01  1.66315063E+00  1.17919662E+01
 -1.91301679E-01 -1.66224594E+00  1.05738235E+01  2.45571003E+00 -7.04857034E-05
 -1.06903785E+01 -3.89262787E-01  4.14070906E-04 -1.17926698E+01  1.92295645E-01
 -1.66127028E+00 -1.05738097E+01 -2.45572389E+00 -1.22070284E-03 -1.17910648E+01
  1.89690130E-01  1.66412271E+00
Force Field                                I                0
Int Atom Types                             I   N=          24
           0           0           0           0           0           0
           0           0           0           0           0           0
           0           0           0           0           0           0
           0           0           0           0           0           0
MM charges                                 R   N=          24
  0.00000000E+00  0.00000000E+00  0.00000000E+00  0.00000000E+00  0.00000000E+00
  0.00000000E+00  0.00000000E+00  0.00000000E+00  0.00000000E+00  0.00000000E+00
  0.00000000E+00  0.00000000E+00  0.00000000E+00  0.00000000E+00  0.00000000E+00
  0.00000000E+00  0.00000000E+00  0.00000000E+00  0.00000000E+00  0.00000000E+00
  0.00000000E+00  0.00000000E+00  0.00000000E+00  0.00000000E+00
Integer atomic weights                     I   N=          24
          12           1          12           1          12           1
          12           1          12           1          12           1
          12           1          12           1          12           1
           1           1          12           1           1           1
Real atomic weights                        R   N=          24
  1.20000000E+01  1.00782504E+00  1.20000000E+01  1.00782504E+00  1.20000000E+01
  1.00782504E+00  1.20000000E+01  1.00782504E+00  1.20000000E+01  1.00782504E+00
  1.20000000E+01  1.00782504E+00  1.20000000E+01  1.00782504E+00  1.20000000E+01
  1.00782504E+00  1.20000000E+01  1.00782504E+00  1.00782504E+00  1.00782504E+00
  1.20000000E+01  1.00782504E+00  1.00782504E+00  1.00782504E+00
Atom fragment info                         I   N=          24
           0           0           0           0           0           0
           0           0           0           0           0           0
           0           0           0           0           0           0
           0           0           0           0           0           0
Atom residue num                           I   N=          24
           0           0           0           0           0           0
           0           0           0           0           0           0
           0           0           0           0           0           0
           0           0           0           0           0           0
Nuclear spins                              I   N=          24
           0           1           0           1           0           1
           0           1           0           1           0           1
           0           1           0           1           0           1
           1           1           0           1           1           1
Nuclear ZEff                               R   N=          24
 -3.60000000E+00 -1.00000000E+00 -3.60000000E+00 -1.00000000E+00 -3.60000000E+00
 -1.00000000E+00 -3.60000000E+00 -1.00000000E+00 -3.60000000E+00 -1.00000000E+00
 -3.60000000E+00 -1.00000000E+00 -3.60000000E+00 -1.00000000E+00 -3.60000000E+00
 -1.00000000E+00 -3.60000000E+00 -1.00000000E+00 -1.00000000E+00 -1.00000000E+00
 -3.60000000E+00 -1.00000000E+00 -1.00000000E+00 -1.00000000E+00
Nuclear ZNuc                               R   N=          24
  6.00000000E+00  1.00000000E+00  6.00000000E+00  1.00000000E+00  6.00000000E+00
  1.00000000E+00  6.00000000E+00  1.00000000E+00  6.00000000E+00  1.00000000E+00
  6.00000000E+00  1.00000000E+00  6.00000000E+00  1.00000000E+00  6.00000000E+00
  1.00000000E+00  6.00000000E+00  1.00000000E+00  1.00000000E+00  1.00000000E+00
  6.00000000E+00  1.00000000E+00  1.00000000E+00  1.00000000E+00
Nuclear QMom                               R   N=          24
  0.00000000E+00  0.00000000E+00  0.00000000E+00  0.00000000E+00  0.00000000E+00
  0.00000000E+00  0.00000000E+00  0.00000000E+00  0.00000000E+00  0.00000000E+00
  0.00000000E+00  0.00000000E+00  0.00000000E+00  0.00000000E+00  0.00000000E+00
  0.00000000E+00  0.00000000E+00  0.00000000E+00  0.00000000E+00  0.00000000E+00
  0.00000000E+00  0.00000000E+00  0.00000000E+00  0.00000000E+00
Nuclear GFac                               R   N=          24
  0.00000000E+00  2.79284600E+00  0.00000000E+00  2.79284600E+00  0.00000000E+00
  2.79284600E+00  0.00000000E+00  2.79284600E+00  0.00000000E+00  2.79284600E+00
  0.00000000E+00  2.79284600E+00  0.00000000E+00  2.79284600E+00  0.00000000E+00
  2.79284600E+00  0.00000000E+00  2.79284600E+00  2.79284600E+00  2.79284600E+00
  0.00000000E+00  2.79284600E+00  2.79284600E+00  2.79284600E+00
MicOpt                                     I   N=          24
          -1          -1          -1          -1          -1          -1
          -1          -1          -1          -1          -1          -1
          -1          -1          -1          -1          -1          -1
          -1          -1          -1          -1          -1          -1
SymInf integers                            I   N=          26
           1           1           1           1           1           0
           0           0           0           0           0           0
           0           0           0           0           0           0
           0           0           0           0           0           0
           0           0
RotTr to input orientation                 R   N=          12
 -5.65314849E-02  9.97783499E-01  3.51038594E-02 -9.97437618E-01 -5.79860919E-02
  4.19024015E-02  4.38450603E-02 -3.26451049E-02  9.98504836E-01 -1.95741062E+00
  3.54899280E-01  2.35144126E-01
Number of contracted shells                I               68
Number of primitive shells                 I              166
Pure/Cartesian d shells                    I                1
Pure/Cartesian f shells                    I                0
Highest angular momentum                   I                2
Largest degree of contraction              I                6
Shell types                                I   N=          68
           0          -1          -1           2           0           0
           0          -1          -1           2           0           0
           0          -1          -1           2           0           0
           0          -1          -1           2           0           0
           0          -1          -1           2           0           0
           0          -1          -1           2           0           0
           0          -1          -1           2           0           0
           0          -1          -1           2           0           0
           0          -1          -1           2           0           0
           0           0           0           0           0          -1
          -1           2           0           0           0           0
           0           0
Number of primitives per shell             I   N=          68
           6           3           1           1           3           1
           6           3           1           1           3           1
           6           3           1           1           3           1
           6           3           1           1           3           1
           6           3           1           1           3           1
           6           3           1           1           3           1
           6           3           1           1           3           1
           6           3           1           1           3           1
           6           3           1           1           3           1
           3           1           3           1           6           3
           1           1           3           1           3           1
           3           1
Shell to atom map                          I   N=          68
           1           1           1           1           2           2
           3           3           3           3           4           4
           5           5           5           5           6           6
           7           7           7           7           8           8
           9           9           9           9          10          10
          11          11          11          11          12          12
          13          13          13          13          14          14
          15          15          15          15          16          16
          17          17          17          17          18          18
          19          19          20          20          21          21
          21          21          22          22          23          23
          24          24
Primitive exponents                        R   N=         166
  3.04752488E+03  4.57369518E+02  1.03948685E+02  2.92101553E+01  9.28666296E+00
  3.16392696E+00  7.86827235E+00  1.88128854E+00  5.44249258E-01  1.68714478E-01
  8.00000000E-01  1.87311370E+01  2.82539436E+00  6.40121692E-01  1.61277759E-01
  3.04752488E+03  4.57369518E+02  1.03948685E+02  2.92101553E+01  9.28666296E+00
  3.16392696E+00  7.86827235E+00  1.88128854E+00  5.44249258E-01  1.68714478E-01
  8.00000000E-01  1.87311370E+01  2.82539436E+00  6.40121692E-01  1.61277759E-01
  3.04752488E+03  4.57369518E+02  1.03948685E+02  2.92101553E+01  9.28666296E+00
  3.16392696E+00  7.86827235E+00  1.88128854E+00  5.44249258E-01  1.68714478E-01
  8.00000000E-01  1.87311370E+01  2.82539436E+00  6.40121692E-01  1.61277759E-01
  3.04752488E+03  4.57369518E+02  1.03948685E+02  2.92101553E+01  9.28666296E+00
  3.16392696E+00  7.86827235E+00  1.88128854E+00  5.44249258E-01  1.68714478E-01
  8.00000000E-01  1.87311370E+01  2.82539436E+00  6.40121692E-01  1.61277759E-01
  3.04752488E+03  4.57369518E+02  1.03948685E+02  2.92101553E+01  9.28666296E+00
  3.16392696E+00  7.86827235E+00  1.88128854E+00  5.44249258E-01  1.68714478E-01
  8.00000000E-01  1.87311370E+01  2.82539436E+00  6.40121692E-01  1.61277759E-01
  3.04752488E+03  4.57369518E+02  1.03948685E+02  2.92101553E+01  9.28666296E+00
  3.16392696E+00  7.86827235E+00  1.88128854E+00  5.44249258E-01  1.68714478E-01
  8.00000000E-01  1.87311370E+01  2.82539436E+00  6.40121692E-01  1.61277759E-01
  3.04752488E+03  4.57369518E+02  1.03948685E+02  2.92101553E+01  9.28666296E+00
  3.16392696E+00  7.86827235E+00  1.88128854E+00  5.44249258E-01  1.68714478E-01
  8.00000000E-01  1.87311370E+01  2.82539436E+00  6.40121692E-01  1.61277759E-01
  3.04752488E+03  4.57369518E+02  1.03948685E+02  2.92101553E+01  9.28666296E+00
  3.16392696E+00  7.86827235E+00  1.88128854E+00  5.44249258E-01  1.68714478E-01
  8.00000000E-01  1.87311370E+01  2.82539436E+00  6.40121692E-01  1.61277759E-01
  3.04752488E+03  4.57369518E+02  1.03948685E+02  2.92101553E+01  9.28666296E+00
  3.16392696E+00  7.86827235E+00  1.88128854E+00  5.44249258E-01  1.68714478E-01
  8.00000000E-01  1.87311370E+01  2.82539436E+00  6.40121692E-01  1.61277759E-01
  1.87311370E+01  2.82539436E+00  6.40121692E-01  1.61277759E-01  1.87311370E+01
  2.82539436E+00  6.40121692E-01  1.61277759E-01  3.04752488E+03  4.57369518E+02
  1.03948685E+02  2.92101553E+01  9.28666296E+00  3.16392696E+00  7.86827235E+00
  1.88128854E+00  5.44249258E-01  1.68714478E-01  8.00000000E-01  1.87311370E+01
  2.82539436E+00  6.40121692E-01  1.61277759E-01  1.87311370E+01  2.82539436E+00
  6.40121692E-01  1.61277759E-01  1.87311370E+01  2.82539436E+00  6.40121692E-01
  1.61277759E-01
Contraction coefficients                   R   N=         166
  1.83473713E-03  1.40373228E-02  6.88426223E-02  2.32184443E-01  4.67941348E-01
  3.62311985E-01 -1.19332420E-01 -1.60854152E-01  1.14345644E+00  1.00000000E+00
  1.00000000E+00  3.34946043E-02  2.34726953E-01  8.13757326E-01  1.00000000E+00
  1.83473713E-03  1.40373228E-02  6.88426223E-02  2.32184443E-01  4.67941348E-01
  3.62311985E-01 -1.19332420E-01 -1.60854152E-01  1.14345644E+00  1.00000000E+00
  1.00000000E+00  3.34946043E-02  2.34726953E-01  8.13757326E-01  1.00000000E+00
  1.83473713E-03  1.40373228E-02  6.88426223E-02  2.32184443E-01  4.67941348E-01
  3.62311985E-01 -1.19332420E-01 -1.60854152E-01  1.14345644E+00  1.00000000E+00
  1.00000000E+00  3.34946043E-02  2.34726953E-01  8.13757326E-01  1.00000000E+00
  1.83473713E-03  1.40373228E-02  6.88426223E-02  2.32184443E-01  4.67941348E-01
  3.62311985E-01 -1.19332420E-01 -1.60854152E-01  1.14345644E+00  1.00000000E+00
  1.00000000E+00  3.34946043E-02  2.34726953E-01  8.13757326E-01  1.00000000E+00
  1.83473713E-03  1.40373228E-02  6.88426223E-02  2.32184443E-01  4.67941348E-01
  3.62311985E-01 -1.19332420E-01 -1.60854152E-01  1.14345644E+00  1.00000000E+00
  1.00000000E+00  3.34946043E-02  2.34726953E-01  8.13757326E-01  1.00000000E+00
  1.83473713E-03  1.40373228E-02  6.88426223E-02  2.32184443E-01  4.67941348E-01
  3.62311985E-01 -1.19332420E-01 -1.60854152E-01  1.14345644E+00  1.00000000E+00
  1.00000000E+00  3.34946043E-02  2.34726953E-01  8.13757326E-01  1.00000000E+00
  1.83473713E-03  1.40373228E-02  6.88426223E-02  2.32184443E-01  4.67941348E-01
  3.62311985E-01 -1.19332420E-01 -1.60854152E-01  1.14345644E+00  1.00000000E+00
  1.00000000E+00  3.34946043E-02  2.34726953E-01  8.13757326E-01  1.00000000E+00
  1.83473713E-03  1.40373228E-02  6.88426223E-02  2.32184443E-01  4.67941348E-01
  3.62311985E-01 -1.19332420E-01 -1.60854152E-01  1.14345644E+00  1.00000000E+00
  1.00000000E+00  3.34946043E-02  2.34726953E-01  8.13757326E-01  1.00000000E+00
  1.83473713E-03  1.40373228E-02  6.88426223E-02  2.32184443E-01  4.67941348E-01
  3.62311985E-01 -1.19332420E-01 -1.60854152E-01  1.14345644E+00  1.00000000E+00
  1.00000000E+00  3.34946043E-02  2.34726953E-01  8.13757326E-01  1.00000000E+00
  3.34946043E-02  2.34726953E-01  8.13757326E-01  1.00000000E+00  3.34946043E-02
  2.34726953E-01  8.13757326E-01  1.00000000E+00  1.83473713E-03  1.40373228E-02
  6.88426223E-02  2.32184443E-01  4.67941348E-01  3.62311985E-01 -1.19332420E-01
 -1.60854152E-01  1.14345644E+00  1.00000000E+00  1.00000000E+00  3.34946043E-02
  2.34726953E-01  8.13757326E-01  1.00000000E+00  3.34946043E-02  2.34726953E-01
  8.13757326E-01  1.00000000E+00  3.34946043E-02  2.34726953E-01  8.13757326E-01
  1.00000000E+00
P(S=P) Contraction coefficients            R   N=         166
  0.00000000E+00  0.00000000E+00  0.00000000E+00  0.00000000E+00  0.00000000E+00
  0.00000000E+00  6.89990666E-02  3.16423961E-01  7.44308291E-01  1.00000000E+00
  0.00000000E+00  0.00000000E+00  0.00000000E+00  0.00000000E+00  0.00000000E+00
  0.00000000E+00  0.00000000E+00  0.00000000E+00  0.00000000E+00  0.00000000E+00
  0.00000000E+00  6.89990666E-02  3.16423961E-01  7.44308291E-01  1.00000000E+00
  0.00000000E+00  0.00000000E+00  0.00000000E+00  0.00000000E+00  0.00000000E+00
  0.00000000E+00  0.00000000E+00  0.00000000E+00  0.00000000E+00  0.00000000E+00
  0.00000000E+00  6.89990666E-02  3.16423961E-01  7.44308291E-01  1.00000000E+00
  0.00000000E+00  0.00000000E+00  0.00000000E+00  0.00000000E+00  0.00000000E+00
  0.00000000E+00  0.00000000E+00  0.00000000E+00  0.00000000E+00  0.00000000E+00
  0.00000000E+00  6.89990666E-02  3.16423961E-01  7.44308291E-01  1.00000000E+00
  0.00000000E+00  0.00000000E+00  0.00000000E+00  0.00000000E+00  0.00000000E+00
  0.00000000E+00  0.00000000E+00  0.00000000E+00  0.00000000E+00  0.00000000E+00
  0.00000000E+00  6.89990666E-02  3.16423961E-01  7.44308291E-01  1.00000000E+00
  0.00000000E+00  0.00000000E+00  0.00000000E+00  0.00000000E+00  0.00000000E+00
  0.00000000E+00  0.00000000E+00  0.00000000E+00  0.00000000E+00  0.00000000E+00
  0.00000000E+00  6.89990666E-02  3.16423961E-01  7.44308291E-01  1.00000000E+00
  0.00000000E+00  0.00000000E+00  0.00000000E+00  0.00000000E+00  0.00000000E+00
  0.00000000E+00  0.00000000E+00  0.00000000E+00  0.00000000E+00  0.00000000E+00
  0.00000000E+00  6.89990666E-02  3.16423961E-01  7.44308291E-01  1.00000000E+00
  0.00000000E+00  0.00000000E+00  0.00000000E+00  0.00000000E+00  0.00000000E+00
  0.00000000E+00  0.00000000E+00  0.00000000E+00  0.00000000E+00  0.00000000E+00
  0.00000000E+00  6.89990666E-02  3.16423961E-01  7.44308291E-01  1.00000000E+00
  0.00000000E+00  0.00000000E+00  0.00000000E+00  0.00000000E+00  0.00000000E+00
  0.00000000E+00  0.00000000E+00  0.00000000E+00  0.00000000E+00  0.00000000E+00
  0.00000000E+00  6.89990666E-02  3.16423961E-01  7.44308291E-01  1.00000000E+00
  0.00000000E+00  0.00000000E+00  0.00000000E+00  0.00000000E+00  0.00000000E+00
  0.00000000E+00  0.00000000E+00  0.00000000E+00  0.00000000E+00  0.00000000E+00
  0.00000000E+00  0.00000000E+00  0.00000000E+00  0.00000000E+00  0.00000000E+00
  0.00000000E+00  0.00000000E+00  0.00000000E+00  0.00000000E+00  6.89990666E-02
  3.16423961E-01  7.44308291E-01  1.00000000E+00  0.00000000E+00  0.00000000E+00
  0.00000000E+00  0.00000000E+00  0.00000000E+00  0.00000000E+00  0.00000000E+00
  0.00000000E+00  0.00000000E+00  0.00000000E+00  0.00000000E+00  0.00000000E+00
  0.00000000E+00
Coordinates of each shell                  R   N=         204
 -3.44818754E+00  7.00986041E-01 -2.95575812E-04 -3.44818754E+00  7.00986041E-01
 -2.95575812E-04 -3.44818754E+00  7.00986041E-01 -2.95575812E-04 -3.44818754E+00
  7.00986041E-01 -2.95575812E-04 -3.40022412E+00  2.76236390E+00 -1.41861261E-04
 -3.40022412E+00  2.76236390E+00 -1.41861261E-04 -1.22966086E+00 -5.83253470E-01
 -5.37381193E-04 -1.22966086E+00 -5.83253470E-01 -5.37381193E-04 -1.22966086E+00
 -5.83253470E-01 -5.37381193E-04 -1.22966086E+00 -5.83253470E-01 -5.37381193E-04
 -1.28017899E+00 -2.64473907E+00 -4.11381899E-04 -1.28017899E+00 -2.64473907E+00
 -4.11381899E-04  1.22966078E+00  5.83204238E-01 -4.95434886E-04  1.22966078E+00
  5.83204238E-01 -4.95434886E-04  1.22966078E+00  5.83204238E-01 -4.95434886E-04
  1.22966078E+00  5.83204238E-01 -4.95434886E-04  1.28016362E+00  2.64469158E+00
 -3.98357941E-04  1.28016362E+00  2.64469158E+00 -3.98357941E-04  3.44820149E+00
 -7.00999421E-01 -2.00312633E-04  3.44820149E+00 -7.00999421E-01 -2.00312633E-04
  3.44820149E+00 -7.00999421E-01 -2.00312633E-04  3.44820149E+00 -7.00999421E-01
 -2.00312633E-04  3.40029620E+00 -2.76237780E+00 -8.40043262E-05  3.40029620E+00
 -2.76237780E+00 -8.40043262E-05  5.91643140E+00  4.72230353E-01  1.55586832E-04
  5.91643140E+00  4.72230353E-01  1.55586832E-04  5.91643140E+00  4.72230353E-01
  1.55586832E-04  5.91643140E+00  4.72230353E-01  1.55586832E-04  5.95794144E+00
  2.53464551E+00  1.11119180E-04  5.95794144E+00  2.53464551E+00  1.11119180E-04
  8.12076444E+00 -8.00340628E-01  2.14458766E-04  8.12076444E+00 -8.00340628E-01
  2.14458766E-04  8.12076444E+00 -8.00340628E-01  2.14458766E-04  8.12076444E+00
 -8.00340628E-01  2.14458766E-04  8.06709084E+00 -2.86200828E+00  2.77223968E-04
  8.06709084E+00 -2.86200828E+00  2.77223968E-04 -5.91644355E+00 -4.72194189E-01
  2.40835231E-06 -5.91644355E+00 -4.72194189E-01  2.40835231E-06 -5.91644355E+00
 -4.72194189E-01  2.40835231E-06 -5.91644355E+00 -4.72194189E-01  2.40835231E-06
 -5.95799405E+00 -2.53461386E+00 -2.99309522E-04 -5.95799405E+00 -2.53461386E+00
 -2.99309522E-04 -8.12076818E+00  8.00402153E-01  1.35267294E-04 -8.12076818E+00
  8.00402153E-01  1.35267294E-04 -8.12076818E+00  8.00402153E-01  1.35267294E-04
 -8.12076818E+00  8.00402153E-01  1.35267294E-04 -8.06706100E+00  2.86206470E+00
  2.16641081E-04 -8.06706100E+00  2.86206470E+00  2.16641081E-04  1.06903795E+01
  3.89246368E-01  3.17578842E-04  1.06903795E+01  3.89246368E-01  3.17578842E-04
  1.06903795E+01  3.89246368E-01  3.17578842E-04  1.06903795E+01  3.89246368E-01
  3.17578842E-04  1.17917268E+01 -1.90808868E-01  1.66315063E+00  1.17917268E+01
 -1.90808868E-01  1.66315063E+00  1.17919662E+01 -1.91301679E-01 -1.66224594E+00
  1.17919662E+01 -1.91301679E-01 -1.66224594E+00  1.05738235E+01  2.45571003E+00
 -7.04857034E-05  1.05738235E+01  2.45571003E+00 -7.04857034E-05 -1.06903785E+01
 -3.89262787E-01  4.14070906E-04 -1.06903785E+01 -3.89262787E-01  4.14070906E-04
 -1.06903785E+01 -3.89262787E-01  4.14070906E-04 -1.06903785E+01 -3.89262787E-01
  4.14070906E-04 -1.17926698E+01  1.92295645E-01 -1.66127028E+00 -1.17926698E+01
  1.92295645E-01 -1.66127028E+00 -1.05738097E+01 -2.45572389E+00 -1.22070284E-03
 -1.05738097E+01 -2.45572389E+00 -1.22070284E-03 -1.17910648E+01  1.89690130E-01
  1.66412271E+00 -1.17910648E+01  1.89690130E-01  1.66412271E+00
Constraint Structure                       R   N=          72
 -3.43384317E+00  7.74517887E-01 -1.25379308E-01 -3.31729993E+00  2.79105602E+00
 -2.17595238E-01 -1.29224089E+00 -6.29651309E-01 -1.44049853E-01 -1.40878413E+00
 -2.64618944E+00 -5.18339226E-02  1.30855749E+00  6.67047666E-01 -2.97532842E-01
  1.42510073E+00  2.68358580E+00 -3.89748772E-01  3.45015975E+00 -7.37121528E-01
 -3.16203386E-01  3.35383905E+00 -2.71623310E+00 -7.19132478E-01  6.02195271E+00
  5.05896061E-01  2.40506314E-01  6.11827343E+00  2.48500763E+00  6.43435405E-01
  8.16355499E+00 -8.98273135E-01  2.21835769E-01  8.04701175E+00 -2.91481127E+00
  3.14051699E-01 -6.03464153E+00 -5.22181089E-01  2.81036800E-02 -6.15118477E+00
 -2.53871922E+00  1.20319611E-01 -8.17624381E+00  8.81988107E-01  4.67742256E-02
 -8.07168786E+00  2.89920233E+00 -4.50241789E-02  1.07643534E+01  3.98425842E-01
  6.83527810E-02  1.10184208E+01  1.59230716E+00  1.68037303E+00  1.22174160E+01
 -1.00727991E+00  3.49974528E-02  1.08642708E+01  1.51120309E+00 -1.61695296E+00
 -1.07692650E+01 -4.30148978E-01  2.00639928E-01 -1.22323993E+01  9.65445137E-01
  1.92435757E-01 -1.09992173E+01 -1.65711070E+00 -1.39002000E+00 -1.08778223E+01
 -1.51046067E+00  1.90641075E+00
Num ILSW                                   I              100
ILSW                                       I   N=         100
           0           1           0           0           2           0
           0           0           0           0         402          -1
           5           0           0           0           2           0
           0           0           0           0           1           0
           1           0           0           0           0           0
           0           0      100000           0          -1           0
           0           0           0           0           0           0
           0           0           0           1           0           0
           0           0           1           0           0           0
           0           0           4          41           0           0
           0           0           5           0           0           0
           0           0           0          24           0           0
           0           0           0           0           0           0
           0           0           0           0           0           0
           0           0           0           0           0           0
           0           0           0           0           0           0
           0           0           0           0
Num RLSW                                   I               41
RLSW                                       R   N=          41
  8.00000000E-01  7.20000000E-01  1.00000000E+00  8.10000000E-01  2.00000000E-01
  0.00000000E+00  0.00000000E+00  1.00000000E+00  0.00000000E+00  0.00000000E+00
  0.00000000E+00  0.00000000E+00  1.00000000E+00  0.00000000E+00  0.00000000E+00
  0.00000000E+00  0.00000000E+00  1.00000000E+00  0.00000000E+00  0.00000000E+00
  0.00000000E+00  0.00000000E+00  1.00000000E+00  0.00000000E+00  0.00000000E+00
  0.00000000E+00  0.00000000E+00  1.00000000E+00  0.00000000E+00  0.00000000E+00
  0.00000000E+00  0.00000000E+00  1.00000000E+00  0.00000000E+00  0.00000000E+00
  0.00000000E+00  0.00000000E+00  0.00000000E+00  1.00000000E+00  1.00000000E+00
  0.00000000E+00
MxBond                                     I                4
NBond                                      I   N=          24
           3           1           3           1           3           1
           3           1           3           1           3           1
           3           1           3           1           4           1
           1           1           4           1           1           1
IBond                                      I   N=          96
           2           3          13           0           1           0
           0           0           1           4           5           0
           3           0           0           0           3           6
           7           0           5           0           0           0
           5           8           9           0           7           0
           0           0           7          10          11           0
           9           0           0           0           9          12
          17           0          11           0           0           0
           1          14          15           0          13           0
           0           0          13          16          21           0
          15           0           0           0          11          18
          19          20          17           0           0           0
          17           0           0           0          17           0
           0           0          15          22          23          24
          21           0           0           0          21           0
           0           0          21           0           0           0
RBond                                      R   N=          96
  1.00000000E+00  2.00000000E+00  1.00000000E+00  0.00000000E+00  1.00000000E+00
  0.00000000E+00  0.00000000E+00  0.00000000E+00  2.00000000E+00  1.00000000E+00
  1.00000000E+00  0.00000000E+00  1.00000000E+00  0.00000000E+00  0.00000000E+00
  0.00000000E+00  1.00000000E+00  1.00000000E+00  2.00000000E+00  0.00000000E+00
  1.00000000E+00  0.00000000E+00  0.00000000E+00  0.00000000E+00  2.00000000E+00
  1.00000000E+00  1.00000000E+00  0.00000000E+00  1.00000000E+00  0.00000000E+00
  0.00000000E+00  0.00000000E+00  1.00000000E+00  1.00000000E+00  2.00000000E+00
  0.00000000E+00  1.00000000E+00  0.00000000E+00  0.00000000E+00  0.00000000E+00
  2.00000000E+00  1.00000000E+00  1.00000000E+00  0.00000000E+00  1.00000000E+00
  0.00000000E+00  0.00000000E+00  0.00000000E+00  1.00000000E+00  1.00000000E+00
  2.00000000E+00  0.00000000E+00  1.00000000E+00  0.00000000E+00  0.00000000E+00
  0.00000000E+00  2.00000000E+00  1.00000000E+00  1.00000000E+00  0.00000000E+00
  1.00000000E+00  0.00000000E+00  0.00000000E+00  0.00000000E+00  1.00000000E+00
  1.00000000E+00  1.00000000E+00  1.00000000E+00  1.00000000E+00  0.00000000E+00
  0.00000000E+00  0.00000000E+00  1.00000000E+00  0.00000000E+00  0.00000000E+00
  0.00000000E+00  1.00000000E+00  0.00000000E+00  0.00000000E+00  0.00000000E+00
  1.00000000E+00  1.00000000E+00  1.00000000E+00  1.00000000E+00  1.00000000E+00
  0.00000000E+00  0.00000000E+00  0.00000000E+00  1.00000000E+00  0.00000000E+00
  0.00000000E+00  0.00000000E+00  1.00000000E+00  0.00000000E+00  0.00000000E+00
  0.00000000E+00
Virial Ratio                               R      2.010224760858093E+00
SCF Energy                                 R     -3.894459456153145E+02