Title Card Required                                                     
SP        RB3LYP TD-FC                                                6-31G(d)            
Number of atoms                            I               24
Info1-9                                    I   N=           9
          56          31           0           0           0         110
           1         218        -501
Charge                                     I                0
Multiplicity                               I                1
Number of electrons                        I               74
Number of alpha electrons                  I               37
Number of beta electrons                   I               37
Number of basis functions                  I              178
Number of independent functions            I              178
Number of point charges in /Mol/           I                0
Number of translation vectors              I                0
Atomic numbers                             I   N=          24
           6           1           6           1           6           1
           6           1           6           1           6           1
           6           1           6           1           6           1
           1           1           6           1           1           1
Nuclear charges                            R   N=          24
  6.00000000E+00  1.00000000E+00  6.00000000E+00  1.00000000E+00  6.00000000E+00
  1.00000000E+00  6.00000000E+00  1.00000000E+00  6.00000000E+00  1.00000000E+00
  6.00000000E+00  1.00000000E+00  6.00000000E+00  1.00000000E+00  6.00000000E+00
  1.00000000E+00  6.00000000E+00  1.00000000E+00  1.00000000E+00  1.00000000E+00
  6.00000000E+00  1.00000000E+00  1.00000000E+00  1.00000000E+00
Current cartesian coordinates              R   N=          72
 -3.44818781E+00  7.00986086E-01 -2.95572064E-04 -3.40022439E+00  2.76236411E+00
 -1.41861741E-04 -1.22966095E+00 -5.83253521E-01 -5.37381420E-04 -1.28017910E+00
 -2.64473928E+00 -4.11374482E-04  1.22966088E+00  5.83204274E-01 -4.95429500E-04
  1.28016371E+00  2.64469177E+00 -3.98354269E-04  3.44820176E+00 -7.00999484E-01
 -2.00310970E-04  3.40029646E+00 -2.76237800E+00 -8.39983266E-05  5.91643185E+00
  4.72230391E-01  1.55581153E-04  5.95794189E+00  2.53464571E+00  1.11115897E-04
  8.12076507E+00 -8.00340686E-01  2.14465019E-04  8.06709146E+00 -2.86200850E+00
  2.77222824E-04 -5.91644400E+00 -4.72194221E-01  2.39995219E-06 -5.95799450E+00
 -2.53461405E+00 -2.99313722E-04 -8.12076881E+00  8.00402215E-01  1.35266597E-04
 -8.06706162E+00  2.86206491E+00  2.16638204E-04  1.06903803E+01  3.89246394E-01
  3.17587374E-04  1.17917277E+01 -1.90808879E-01  1.66315077E+00  1.17919671E+01
 -1.91301701E-01 -1.66224606E+00  1.05738243E+01  2.45571022E+00 -7.04867848E-05
 -1.06903793E+01 -3.89262815E-01  4.14076790E-04 -1.17926707E+01  1.92295659E-01
 -1.66127041E+00 -1.05738105E+01 -2.45572407E+00 -1.22070639E-03 -1.17910657E+01
  1.89690142E-01  1.66412284E+00
Force Field                                I                0
Int Atom Types                             I   N=          24
           0           0           0           0           0           0
           0           0           0           0           0           0
           0           0           0           0           0           0
           0           0           0           0           0           0
MM charges                                 R   N=          24
  0.00000000E+00  0.00000000E+00  0.00000000E+00  0.00000000E+00  0.00000000E+00
  0.00000000E+00  0.00000000E+00  0.00000000E+00  0.00000000E+00  0.00000000E+00
  0.00000000E+00  0.00000000E+00  0.00000000E+00  0.00000000E+00  0.00000000E+00
  0.00000000E+00  0.00000000E+00  0.00000000E+00  0.00000000E+00  0.00000000E+00
  0.00000000E+00  0.00000000E+00  0.00000000E+00  0.00000000E+00
Integer atomic weights                     I   N=          24
          12           1          12           1          12           1
          12           1          12           1          12           1
          12           1          12           1          12           1
           1           1          12           1           1           1
Real atomic weights                        R   N=          24
  1.20000000E+01  1.00782504E+00  1.20000000E+01  1.00782504E+00  1.20000000E+01
  1.00782504E+00  1.20000000E+01  1.00782504E+00  1.20000000E+01  1.00782504E+00
  1.20000000E+01  1.00782504E+00  1.20000000E+01  1.00782504E+00  1.20000000E+01
  1.00782504E+00  1.20000000E+01  1.00782504E+00  1.00782504E+00  1.00782504E+00
  1.20000000E+01  1.00782504E+00  1.00782504E+00  1.00782504E+00
Atom fragment info                         I   N=          24
           0           0           0           0           0           0
           0           0           0           0           0           0
           0           0           0           0           0           0
           0           0           0           0           0           0
Atom residue num                           I   N=          24
           0           0           0           0           0           0
           0           0           0           0           0           0
           0           0           0           0           0           0
           0           0           0           0           0           0
Nuclear spins                              I   N=          24
           0           1           0           1           0           1
           0           1           0           1           0           1
           0           1           0           1           0           1
           1           1           0           1           1           1
Nuclear ZEff                               R   N=          24
 -3.60000000E+00 -1.00000000E+00 -3.60000000E+00 -1.00000000E+00 -3.60000000E+00
 -1.00000000E+00 -3.60000000E+00 -1.00000000E+00 -3.60000000E+00 -1.00000000E+00
 -3.60000000E+00 -1.00000000E+00 -3.60000000E+00 -1.00000000E+00 -3.60000000E+00
 -1.00000000E+00 -3.60000000E+00 -1.00000000E+00 -1.00000000E+00 -1.00000000E+00
 -3.60000000E+00 -1.00000000E+00 -1.00000000E+00 -1.00000000E+00
Nuclear ZNuc                               R   N=          24
  6.00000000E+00  1.00000000E+00  6.00000000E+00  1.00000000E+00  6.00000000E+00
  1.00000000E+00  6.00000000E+00  1.00000000E+00  6.00000000E+00  1.00000000E+00
  6.00000000E+00  1.00000000E+00  6.00000000E+00  1.00000000E+00  6.00000000E+00
  1.00000000E+00  6.00000000E+00  1.00000000E+00  1.00000000E+00  1.00000000E+00
  6.00000000E+00  1.00000000E+00  1.00000000E+00  1.00000000E+00
Nuclear QMom                               R   N=          24
  0.00000000E+00  0.00000000E+00  0.00000000E+00  0.00000000E+00  0.00000000E+00
  0.00000000E+00  0.00000000E+00  0.00000000E+00  0.00000000E+00  0.00000000E+00
  0.00000000E+00  0.00000000E+00  0.00000000E+00  0.00000000E+00  0.00000000E+00
  0.00000000E+00  0.00000000E+00  0.00000000E+00  0.00000000E+00  0.00000000E+00
  0.00000000E+00  0.00000000E+00  0.00000000E+00  0.00000000E+00
Nuclear GFac                               R   N=          24
  0.00000000E+00  2.79284600E+00  0.00000000E+00  2.79284600E+00  0.00000000E+00
  2.79284600E+00  0.00000000E+00  2.79284600E+00  0.00000000E+00  2.79284600E+00
  0.00000000E+00  2.79284600E+00  0.00000000E+00  2.79284600E+00  0.00000000E+00
  2.79284600E+00  0.00000000E+00  2.79284600E+00  2.79284600E+00  2.79284600E+00
  0.00000000E+00  2.79284600E+00  2.79284600E+00  2.79284600E+00
MicOpt                                     I   N=          24
          -1          -1          -1          -1          -1          -1
          -1          -1          -1          -1          -1          -1
          -1          -1          -1          -1          -1          -1
          -1          -1          -1          -1          -1          -1
Number of contracted shells                I               68
Number of primitive shells                 I              166
Pure/Cartesian d shells                    I                1
Pure/Cartesian f shells                    I                0
Highest angular momentum                   I                2
Largest degree of contraction              I                6
Shell types                                I   N=          68
           0          -1          -1           2           0           0
           0          -1          -1           2           0           0
           0          -1          -1           2           0           0
           0          -1          -1           2           0           0
           0          -1          -1           2           0           0
           0          -1          -1           2           0           0
           0          -1          -1           2           0           0
           0          -1          -1           2           0           0
           0          -1          -1           2           0           0
           0           0           0           0           0          -1
          -1           2           0           0           0           0
           0           0
Number of primitives per shell             I   N=          68
           6           3           1           1           3           1
           6           3           1           1           3           1
           6           3           1           1           3           1
           6           3           1           1           3           1
           6           3           1           1           3           1
           6           3           1           1           3           1
           6           3           1           1           3           1
           6           3           1           1           3           1
           6           3           1           1           3           1
           3           1           3           1           6           3
           1           1           3           1           3           1
           3           1
Shell to atom map                          I   N=          68
           1           1           1           1           2           2
           3           3           3           3           4           4
           5           5           5           5           6           6
           7           7           7           7           8           8
           9           9           9           9          10          10
          11          11          11          11          12          12
          13          13          13          13          14          14
          15          15          15          15          16          16
          17          17          17          17          18          18
          19          19          20          20          21          21
          21          21          22          22          23          23
          24          24
Primitive exponents                        R   N=         166
  3.04752488E+03  4.57369518E+02  1.03948685E+02  2.92101553E+01  9.28666296E+00
  3.16392696E+00  7.86827235E+00  1.88128854E+00  5.44249258E-01  1.68714478E-01
  8.00000000E-01  1.87311370E+01  2.82539436E+00  6.40121692E-01  1.61277759E-01
  3.04752488E+03  4.57369518E+02  1.03948685E+02  2.92101553E+01  9.28666296E+00
  3.16392696E+00  7.86827235E+00  1.88128854E+00  5.44249258E-01  1.68714478E-01
  8.00000000E-01  1.87311370E+01  2.82539436E+00  6.40121692E-01  1.61277759E-01
  3.04752488E+03  4.57369518E+02  1.03948685E+02  2.92101553E+01  9.28666296E+00
  3.16392696E+00  7.86827235E+00  1.88128854E+00  5.44249258E-01  1.68714478E-01
  8.00000000E-01  1.87311370E+01  2.82539436E+00  6.40121692E-01  1.61277759E-01
  3.04752488E+03  4.57369518E+02  1.03948685E+02  2.92101553E+01  9.28666296E+00
  3.16392696E+00  7.86827235E+00  1.88128854E+00  5.44249258E-01  1.68714478E-01
  8.00000000E-01  1.87311370E+01  2.82539436E+00  6.40121692E-01  1.61277759E-01
  3.04752488E+03  4.57369518E+02  1.03948685E+02  2.92101553E+01  9.28666296E+00
  3.16392696E+00  7.86827235E+00  1.88128854E+00  5.44249258E-01  1.68714478E-01
  8.00000000E-01  1.87311370E+01  2.82539436E+00  6.40121692E-01  1.61277759E-01
  3.04752488E+03  4.57369518E+02  1.03948685E+02  2.92101553E+01  9.28666296E+00
  3.16392696E+00  7.86827235E+00  1.88128854E+00  5.44249258E-01  1.68714478E-01
  8.00000000E-01  1.87311370E+01  2.82539436E+00  6.40121692E-01  1.61277759E-01
  3.04752488E+03  4.57369518E+02  1.03948685E+02  2.92101553E+01  9.28666296E+00
  3.16392696E+00  7.86827235E+00  1.88128854E+00  5.44249258E-01  1.68714478E-01
  8.00000000E-01  1.87311370E+01  2.82539436E+00  6.40121692E-01  1.61277759E-01
  3.04752488E+03  4.57369518E+02  1.03948685E+02  2.92101553E+01  9.28666296E+00
  3.16392696E+00  7.86827235E+00  1.88128854E+00  5.44249258E-01  1.68714478E-01
  8.00000000E-01  1.87311370E+01  2.82539436E+00  6.40121692E-01  1.61277759E-01
  3.04752488E+03  4.57369518E+02  1.03948685E+02  2.92101553E+01  9.28666296E+00
  3.16392696E+00  7.86827235E+00  1.88128854E+00  5.44249258E-01  1.68714478E-01
  8.00000000E-01  1.87311370E+01  2.82539436E+00  6.40121692E-01  1.61277759E-01
  1.87311370E+01  2.82539436E+00  6.40121692E-01  1.61277759E-01  1.87311370E+01
  2.82539436E+00  6.40121692E-01  1.61277759E-01  3.04752488E+03  4.57369518E+02
  1.03948685E+02  2.92101553E+01  9.28666296E+00  3.16392696E+00  7.86827235E+00
  1.88128854E+00  5.44249258E-01  1.68714478E-01  8.00000000E-01  1.87311370E+01
  2.82539436E+00  6.40121692E-01  1.61277759E-01  1.87311370E+01  2.82539436E+00
  6.40121692E-01  1.61277759E-01  1.87311370E+01  2.82539436E+00  6.40121692E-01
  1.61277759E-01
Contraction coefficients                   R   N=         166
  1.83473713E-03  1.40373228E-02  6.88426223E-02  2.32184443E-01  4.67941348E-01
  3.62311985E-01 -1.19332420E-01 -1.60854152E-01  1.14345644E+00  1.00000000E+00
  1.00000000E+00  3.34946043E-02  2.34726953E-01  8.13757326E-01  1.00000000E+00
  1.83473713E-03  1.40373228E-02  6.88426223E-02  2.32184443E-01  4.67941348E-01
  3.62311985E-01 -1.19332420E-01 -1.60854152E-01  1.14345644E+00  1.00000000E+00
  1.00000000E+00  3.34946043E-02  2.34726953E-01  8.13757326E-01  1.00000000E+00
  1.83473713E-03  1.40373228E-02  6.88426223E-02  2.32184443E-01  4.67941348E-01
  3.62311985E-01 -1.19332420E-01 -1.60854152E-01  1.14345644E+00  1.00000000E+00
  1.00000000E+00  3.34946043E-02  2.34726953E-01  8.13757326E-01  1.00000000E+00
  1.83473713E-03  1.40373228E-02  6.88426223E-02  2.32184443E-01  4.67941348E-01
  3.62311985E-01 -1.19332420E-01 -1.60854152E-01  1.14345644E+00  1.00000000E+00
  1.00000000E+00  3.34946043E-02  2.34726953E-01  8.13757326E-01  1.00000000E+00
  1.83473713E-03  1.40373228E-02  6.88426223E-02  2.32184443E-01  4.67941348E-01
  3.62311985E-01 -1.19332420E-01 -1.60854152E-01  1.14345644E+00  1.00000000E+00
  1.00000000E+00  3.34946043E-02  2.34726953E-01  8.13757326E-01  1.00000000E+00
  1.83473713E-03  1.40373228E-02  6.88426223E-02  2.32184443E-01  4.67941348E-01
  3.62311985E-01 -1.19332420E-01 -1.60854152E-01  1.14345644E+00  1.00000000E+00
  1.00000000E+00  3.34946043E-02  2.34726953E-01  8.13757326E-01  1.00000000E+00
  1.83473713E-03  1.40373228E-02  6.88426223E-02  2.32184443E-01  4.67941348E-01
  3.62311985E-01 -1.19332420E-01 -1.60854152E-01  1.14345644E+00  1.00000000E+00
  1.00000000E+00  3.34946043E-02  2.34726953E-01  8.13757326E-01  1.00000000E+00
  1.83473713E-03  1.40373228E-02  6.88426223E-02  2.32184443E-01  4.67941348E-01
  3.62311985E-01 -1.19332420E-01 -1.60854152E-01  1.14345644E+00  1.00000000E+00
  1.00000000E+00  3.34946043E-02  2.34726953E-01  8.13757326E-01  1.00000000E+00
  1.83473713E-03  1.40373228E-02  6.88426223E-02  2.32184443E-01  4.67941348E-01
  3.62311985E-01 -1.19332420E-01 -1.60854152E-01  1.14345644E+00  1.00000000E+00
  1.00000000E+00  3.34946043E-02  2.34726953E-01  8.13757326E-01  1.00000000E+00
  3.34946043E-02  2.34726953E-01  8.13757326E-01  1.00000000E+00  3.34946043E-02
  2.34726953E-01  8.13757326E-01  1.00000000E+00  1.83473713E-03  1.40373228E-02
  6.88426223E-02  2.32184443E-01  4.67941348E-01  3.62311985E-01 -1.19332420E-01
 -1.60854152E-01  1.14345644E+00  1.00000000E+00  1.00000000E+00  3.34946043E-02
  2.34726953E-01  8.13757326E-01  1.00000000E+00  3.34946043E-02  2.34726953E-01
  8.13757326E-01  1.00000000E+00  3.34946043E-02  2.34726953E-01  8.13757326E-01
  1.00000000E+00
P(S=P) Contraction coefficients            R   N=         166
  0.00000000E+00  0.00000000E+00  0.00000000E+00  0.00000000E+00  0.00000000E+00
  0.00000000E+00  6.89990666E-02  3.16423961E-01  7.44308291E-01  1.00000000E+00
  0.00000000E+00  0.00000000E+00  0.00000000E+00  0.00000000E+00  0.00000000E+00
  0.00000000E+00  0.00000000E+00  0.00000000E+00  0.00000000E+00  0.00000000E+00
  0.00000000E+00  6.89990666E-02  3.16423961E-01  7.44308291E-01  1.00000000E+00
  0.00000000E+00  0.00000000E+00  0.00000000E+00  0.00000000E+00  0.00000000E+00
  0.00000000E+00  0.00000000E+00  0.00000000E+00  0.00000000E+00  0.00000000E+00
  0.00000000E+00  6.89990666E-02  3.16423961E-01  7.44308291E-01  1.00000000E+00
  0.00000000E+00  0.00000000E+00  0.00000000E+00  0.00000000E+00  0.00000000E+00
  0.00000000E+00  0.00000000E+00  0.00000000E+00  0.00000000E+00  0.00000000E+00
  0.00000000E+00  6.89990666E-02  3.16423961E-01  7.44308291E-01  1.00000000E+00
  0.00000000E+00  0.00000000E+00  0.00000000E+00  0.00000000E+00  0.00000000E+00
  0.00000000E+00  0.00000000E+00  0.00000000E+00  0.00000000E+00  0.00000000E+00
  0.00000000E+00  6.89990666E-02  3.16423961E-01  7.44308291E-01  1.00000000E+00
  0.00000000E+00  0.00000000E+00  0.00000000E+00  0.00000000E+00  0.00000000E+00
  0.00000000E+00  0.00000000E+00  0.00000000E+00  0.00000000E+00  0.00000000E+00
  0.00000000E+00  6.89990666E-02  3.16423961E-01  7.44308291E-01  1.00000000E+00
  0.00000000E+00  0.00000000E+00  0.00000000E+00  0.00000000E+00  0.00000000E+00
  0.00000000E+00  0.00000000E+00  0.00000000E+00  0.00000000E+00  0.00000000E+00
  0.00000000E+00  6.89990666E-02  3.16423961E-01  7.44308291E-01  1.00000000E+00
  0.00000000E+00  0.00000000E+00  0.00000000E+00  0.00000000E+00  0.00000000E+00
  0.00000000E+00  0.00000000E+00  0.00000000E+00  0.00000000E+00  0.00000000E+00
  0.00000000E+00  6.89990666E-02  3.16423961E-01  7.44308291E-01  1.00000000E+00
  0.00000000E+00  0.00000000E+00  0.00000000E+00  0.00000000E+00  0.00000000E+00
  0.00000000E+00  0.00000000E+00  0.00000000E+00  0.00000000E+00  0.00000000E+00
  0.00000000E+00  6.89990666E-02  3.16423961E-01  7.44308291E-01  1.00000000E+00
  0.00000000E+00  0.00000000E+00  0.00000000E+00  0.00000000E+00  0.00000000E+00
  0.00000000E+00  0.00000000E+00  0.00000000E+00  0.00000000E+00  0.00000000E+00
  0.00000000E+00  0.00000000E+00  0.00000000E+00  0.00000000E+00  0.00000000E+00
  0.00000000E+00  0.00000000E+00  0.00000000E+00  0.00000000E+00  6.89990666E-02
  3.16423961E-01  7.44308291E-01  1.00000000E+00  0.00000000E+00  0.00000000E+00
  0.00000000E+00  0.00000000E+00  0.00000000E+00  0.00000000E+00  0.00000000E+00
  0.00000000E+00  0.00000000E+00  0.00000000E+00  0.00000000E+00  0.00000000E+00
  0.00000000E+00
Coordinates of each shell                  R   N=         204
 -3.44818781E+00  7.00986086E-01 -2.95572064E-04 -3.44818781E+00  7.00986086E-01
 -2.95572064E-04 -3.44818781E+00  7.00986086E-01 -2.95572064E-04 -3.44818781E+00
  7.00986086E-01 -2.95572064E-04 -3.40022439E+00  2.76236411E+00 -1.41861741E-04
 -3.40022439E+00  2.76236411E+00 -1.41861741E-04 -1.22966095E+00 -5.83253521E-01
 -5.37381420E-04 -1.22966095E+00 -5.83253521E-01 -5.37381420E-04 -1.22966095E+00
 -5.83253521E-01 -5.37381420E-04 -1.22966095E+00 -5.83253521E-01 -5.37381420E-04
 -1.28017910E+00 -2.64473928E+00 -4.11374482E-04 -1.28017910E+00 -2.64473928E+00
 -4.11374482E-04  1.22966088E+00  5.83204274E-01 -4.95429500E-04  1.22966088E+00
  5.83204274E-01 -4.95429500E-04  1.22966088E+00  5.83204274E-01 -4.95429500E-04
  1.22966088E+00  5.83204274E-01 -4.95429500E-04  1.28016371E+00  2.64469177E+00
 -3.98354269E-04  1.28016371E+00  2.64469177E+00 -3.98354269E-04  3.44820176E+00
 -7.00999484E-01 -2.00310970E-04  3.44820176E+00 -7.00999484E-01 -2.00310970E-04
  3.44820176E+00 -7.00999484E-01 -2.00310970E-04  3.44820176E+00 -7.00999484E-01
 -2.00310970E-04  3.40029646E+00 -2.76237800E+00 -8.39983266E-05  3.40029646E+00
 -2.76237800E+00 -8.39983266E-05  5.91643185E+00  4.72230391E-01  1.55581153E-04
  5.91643185E+00  4.72230391E-01  1.55581153E-04  5.91643185E+00  4.72230391E-01
  1.55581153E-04  5.91643185E+00  4.72230391E-01  1.55581153E-04  5.95794189E+00
  2.53464571E+00  1.11115897E-04  5.95794189E+00  2.53464571E+00  1.11115897E-04
  8.12076507E+00 -8.00340686E-01  2.14465019E-04  8.12076507E+00 -8.00340686E-01
  2.14465019E-04  8.12076507E+00 -8.00340686E-01  2.14465019E-04  8.12076507E+00
 -8.00340686E-01  2.14465019E-04  8.06709146E+00 -2.86200850E+00  2.77222824E-04
  8.06709146E+00 -2.86200850E+00  2.77222824E-04 -5.91644400E+00 -4.72194221E-01
  2.39995219E-06 -5.91644400E+00 -4.72194221E-01  2.39995219E-06 -5.91644400E+00
 -4.72194221E-01  2.39995219E-06 -5.91644400E+00 -4.72194221E-01  2.39995219E-06
 -5.95799450E+00 -2.53461405E+00 -2.99313722E-04 -5.95799450E+00 -2.53461405E+00
 -2.99313722E-04 -8.12076881E+00  8.00402215E-01  1.35266597E-04 -8.12076881E+00
  8.00402215E-01  1.35266597E-04 -8.12076881E+00  8.00402215E-01  1.35266597E-04
 -8.12076881E+00  8.00402215E-01  1.35266597E-04 -8.06706162E+00  2.86206491E+00
  2.16638204E-04 -8.06706162E+00  2.86206491E+00  2.16638204E-04  1.06903803E+01
  3.89246394E-01  3.17587374E-04  1.06903803E+01  3.89246394E-01  3.17587374E-04
  1.06903803E+01  3.89246394E-01  3.17587374E-04  1.06903803E+01  3.89246394E-01
  3.17587374E-04  1.17917277E+01 -1.90808879E-01  1.66315077E+00  1.17917277E+01
 -1.90808879E-01  1.66315077E+00  1.17919671E+01 -1.91301701E-01 -1.66224606E+00
  1.17919671E+01 -1.91301701E-01 -1.66224606E+00  1.05738243E+01  2.45571022E+00
 -7.04867848E-05  1.05738243E+01  2.45571022E+00 -7.04867848E-05 -1.06903793E+01
 -3.89262815E-01  4.14076790E-04 -1.06903793E+01 -3.89262815E-01  4.14076790E-04
 -1.06903793E+01 -3.89262815E-01  4.14076790E-04 -1.06903793E+01 -3.89262815E-01
  4.14076790E-04 -1.17926707E+01  1.92295659E-01 -1.66127041E+00 -1.17926707E+01
  1.92295659E-01 -1.66127041E+00 -1.05738105E+01 -2.45572407E+00 -1.22070639E-03
 -1.05738105E+01 -2.45572407E+00 -1.22070639E-03 -1.17910657E+01  1.89690142E-01
  1.66412284E+00 -1.17910657E+01  1.89690142E-01  1.66412284E+00
Constraint Structure                       R   N=          72
 -3.44818781E+00  7.00986086E-01 -2.95572064E-04 -3.40022439E+00  2.76236411E+00
 -1.41861741E-04 -1.22966095E+00 -5.83253521E-01 -5.37381420E-04 -1.28017910E+00
 -2.64473928E+00 -4.11374482E-04  1.22966088E+00  5.83204274E-01 -4.95429500E-04
  1.28016371E+00  2.64469177E+00 -3.98354269E-04  3.44820176E+00 -7.00999484E-01
 -2.00310970E-04  3.40029646E+00 -2.76237800E+00 -8.39983266E-05  5.91643185E+00
  4.72230391E-01  1.55581153E-04  5.95794189E+00  2.53464571E+00  1.11115897E-04
  8.12076507E+00 -8.00340686E-01  2.14465019E-04  8.06709146E+00 -2.86200850E+00
  2.77222824E-04 -5.91644400E+00 -4.72194221E-01  2.39995219E-06 -5.95799450E+00
 -2.53461405E+00 -2.99313722E-04 -8.12076881E+00  8.00402215E-01  1.35266597E-04
 -8.06706162E+00  2.86206491E+00  2.16638204E-04  1.06903803E+01  3.89246394E-01
  3.17587374E-04  1.17917277E+01 -1.90808879E-01  1.66315077E+00  1.17919671E+01
 -1.91301701E-01 -1.66224606E+00  1.05738243E+01  2.45571022E+00 -7.04867848E-05
 -1.06903793E+01 -3.89262815E-01  4.14076790E-04 -1.17926707E+01  1.92295659E-01
 -1.66127041E+00 -1.05738105E+01 -2.45572407E+00 -1.22070639E-03 -1.17910657E+01
  1.89690142E-01  1.66412284E+00
Num ILSW                                   I              100
ILSW                                       I   N=         100
           0           1           0           0           2           0
           0           0           0           0         402          -1
           0           0           0           0           0           0
           0           0           0           0           0           0
           1           1           0           0           0           0
           0           0      100000           0          -1           0
           0           0           0           0           0           0
           0           0           0           1           0           0
           0           0           1           0           0           0
           0           0           4          41           0           0
           0           0           5           0           0           0
           0           0           0          24           0           0
           0           0           0           0           0           0
           0           0           0           0           0           0
           0           0           0           0           0           0
           0           0           0           0           0           0
           0           0           0           0
Num RLSW                                   I               41
RLSW                                       R   N=          41
  8.00000000E-01  7.20000000E-01  1.00000000E+00  8.10000000E-01  2.00000000E-01
  0.00000000E+00  0.00000000E+00  1.00000000E+00  0.00000000E+00  0.00000000E+00
  0.00000000E+00  0.00000000E+00  1.00000000E+00  0.00000000E+00  0.00000000E+00
  0.00000000E+00  0.00000000E+00  1.00000000E+00  0.00000000E+00  0.00000000E+00
  0.00000000E+00  0.00000000E+00  1.00000000E+00  0.00000000E+00  0.00000000E+00
  0.00000000E+00  0.00000000E+00  1.00000000E+00  0.00000000E+00  0.00000000E+00
  0.00000000E+00  0.00000000E+00  1.00000000E+00  0.00000000E+00  0.00000000E+00
  0.00000000E+00  0.00000000E+00  0.00000000E+00  1.00000000E+00  1.00000000E+00
  0.00000000E+00
MxBond                                     I                4
NBond                                      I   N=          24
           3           1           3           1           3           1
           3           1           3           1           3           1
           3           1           3           1           4           1
           1           1           4           1           1           1
IBond                                      I   N=          96
           2           3          13           0           1           0
           0           0           1           4           5           0
           3           0           0           0           3           6
           7           0           5           0           0           0
           5           8           9           0           7           0
           0           0           7          10          11           0
           9           0           0           0           9          12
          17           0          11           0           0           0
           1          14          15           0          13           0
           0           0          13          16          21           0
          15           0           0           0          11          18
          19          20          17           0           0           0
          17           0           0           0          17           0
           0           0          15          22          23          24
          21           0           0           0          21           0
           0           0          21           0           0           0
RBond                                      R   N=          96
  1.00000000E+00  2.00000000E+00  1.00000000E+00  0.00000000E+00  1.00000000E+00
  0.00000000E+00  0.00000000E+00  0.00000000E+00  2.00000000E+00  1.00000000E+00
  1.00000000E+00  0.00000000E+00  1.00000000E+00  0.00000000E+00  0.00000000E+00
  0.00000000E+00  1.00000000E+00  1.00000000E+00  2.00000000E+00  0.00000000E+00
  1.00000000E+00  0.00000000E+00  0.00000000E+00  0.00000000E+00  2.00000000E+00
  1.00000000E+00  1.00000000E+00  0.00000000E+00  1.00000000E+00  0.00000000E+00
  0.00000000E+00  0.00000000E+00  1.00000000E+00  1.00000000E+00  2.00000000E+00
  0.00000000E+00  1.00000000E+00  0.00000000E+00  0.00000000E+00  0.00000000E+00
  2.00000000E+00  1.00000000E+00  1.00000000E+00  0.00000000E+00  1.00000000E+00
  0.00000000E+00  0.00000000E+00  0.00000000E+00  1.00000000E+00  1.00000000E+00
  2.00000000E+00  0.00000000E+00  1.00000000E+00  0.00000000E+00  0.00000000E+00
  0.00000000E+00  2.00000000E+00  1.00000000E+00  1.00000000E+00  0.00000000E+00
  1.00000000E+00  0.00000000E+00  0.00000000E+00  0.00000000E+00  1.00000000E+00
  1.00000000E+00  1.00000000E+00  1.00000000E+00  1.00000000E+00  0.00000000E+00
  0.00000000E+00  0.00000000E+00  1.00000000E+00  0.00000000E+00  0.00000000E+00
  0.00000000E+00  1.00000000E+00  0.00000000E+00  0.00000000E+00  0.00000000E+00
  1.00000000E+00  1.00000000E+00  1.00000000E+00  1.00000000E+00  1.00000000E+00
  0.00000000E+00  0.00000000E+00  0.00000000E+00  1.00000000E+00  0.00000000E+00
  0.00000000E+00  0.00000000E+00  1.00000000E+00  0.00000000E+00  0.00000000E+00
  0.00000000E+00
Virial Ratio                               R      2.010224975814030E+00
SCF Energy                                 R     -3.894459612624787E+02
CIS Energy                                 R     -3.892996873398797E+02
Total Energy                               R     -3.892996873398797E+02
Post-SCF wavefunction norm                 R      1.000000000000000E+00
RMS Density                                R      6.508782260593984E-09
Job Status                                 I                1
Nuclear derivative order                   I                0
External E-field                           R   N=          35
  0.00000000E+00  0.00000000E+00  0.00000000E+00  0.00000000E+00  0.00000000E+00
  0.00000000E+00  0.00000000E+00  0.00000000E+00  0.00000000E+00  0.00000000E+00