144
# input_step: 0
C 0.433620 -0.303550 -0.125321
C -0.515496 0.696031 0.283388
C -0.132817 -1.538702 -0.585353
C -1.909011 0.462457 0.259004
C -2.463842 -0.801341 -0.139162
C -1.527266 -1.806714 -0.580002
C 1.881904 -0.042468 -0.037760
C 3.085257 0.321632 -0.035498
C 4.547669 0.441245 0.036154
C 5.204395 1.652962 -0.395110
C 5.371547 -0.639543 0.526066
C 6.613364 1.768276 -0.397165
C 6.784037 -0.507740 0.546040
C 7.426450 0.686385 0.069102
C 8.868864 0.764196 0.053353
C 10.118742 0.699419 0.109056
C 11.572661 0.657864 0.095547
C 12.238847 -0.329814 0.901308
C 12.355670 1.509458 -0.757734
C 13.759428 1.343680 -0.843281
C 13.639247 -0.489517 0.834111
C 14.416039 0.345522 -0.036447
C 15.846003 0.176159 -0.041438
C 17.070781 0.086273 0.191204
C 18.511479 0.022027 0.168694
C 19.231586 -1.205445 0.373823
C 19.244027 1.212948 -0.137440
C 20.650429 1.163866 -0.247721
C 20.640525 -1.248495 0.330153
C 21.379634 -0.056879 -0.008371
C 22.834092 -0.107624 -0.141672
C 24.077416 -0.265882 -0.166067
C 25.529700 -0.229475 -0.110042
C 26.311457 -1.281296 0.510931
C 26.182303 0.937666 -0.630711
C 27.590196 1.054476 -0.530072
C 27.705044 -1.133221 0.610219
C 28.368863 0.028813 0.093616
C 29.807757 0.103298 0.136505
H -2.645196 1.287727 0.605397
H -0.137536 1.721834 0.637116
H -3.908161 -0.967954 -0.110409
H -1.901650 -2.828187 -0.944141
H 0.596628 -2.352856 -0.949927
H 4.539691 2.505758 -0.788760
H 4.894922 -1.622020 0.905209
H 7.107785 2.728906 -0.789973
H 7.431682 -1.372505 0.947328
H 11.798714 2.289439 -1.395406
H 14.429554 1.987991 -1.522546
H 11.600478 -1.013548 1.577400
H 14.173935 -1.281930 1.475583
H 18.680100 2.193511 -0.328229
H 18.611899 -2.156276 0.605344
H 21.242012 2.118311 -0.505028
H 21.197837 -2.245057 0.513542
H 25.527823 1.763936 -1.102238
H 25.777178 -2.206751 0.931631
H 28.149477 1.979389 -0.935067
H 28.358959 -1.938355 1.099383
H 32.704536 2.197743 -0.761101
H 32.532606 -2.058473 0.570658
C 36.785699 -0.016261 0.058877
H 35.284301 2.065644 -0.741873
H 35.103946 -2.172686 0.584671
C 31.049224 0.064276 0.024443
C 32.484060 0.079666 -0.034056
C 33.166787 -1.128947 0.310557
C 33.237415 1.225743 -0.447322
C 34.644696 1.163853 -0.434740
C 34.573296 -1.186944 0.313553
C 35.345075 -0.016539 -0.003641
C 42.329648 -0.081397 0.125323
C 41.684140 1.139287 -0.243924
C 41.500738 -1.205900 0.487071
C 40.281228 1.249478 -0.257869
C 39.465463 0.127149 0.085392
C 40.095633 -1.098718 0.471839
C 43.792146 -0.110734 0.139302
C 45.051555 -0.088926 0.097416
C 46.507216 0.044200 -0.009689
C 47.171015 1.205598 -0.549232
C 47.360391 -1.031083 0.405785
C 48.590715 1.268208 -0.666966
C 48.755172 -0.983333 0.260359
C 49.424676 0.184547 -0.244101
C 50.883780 0.246625 -0.227612
C 52.118570 0.173614 -0.003973
C 53.563300 0.101307 0.077908
C 54.290515 -1.089933 0.447268
C 54.296796 1.272733 -0.316093
C 55.700731 1.254882 -0.396438
C 55.709925 -1.093928 0.367799
C 56.432229 0.070693 -0.063141
C 57.867546 0.191945 -0.092250
C 59.060271 0.508630 0.134074
C 60.507023 0.476352 0.118768
C 61.120780 -0.783150 -0.157506
C 61.324797 1.630394 0.353679
C 62.724027 1.522912 0.381929
C 62.529204 -0.882415 -0.162036
C 63.366409 0.255858 0.125581
C 64.816619 0.080844 0.092393
C 66.047263 -0.126058 -0.050279
C 67.493449 -0.195914 -0.138550
C 68.169057 -1.371684 -0.620076
C 68.297483 0.910355 0.290283
C 69.704107 0.824494 0.327180
C 69.579691 -1.451611 -0.626277
C 70.372272 -0.369140 -0.112594
C 71.825423 -0.490549 0.012651
H 39.784977 2.245308 -0.555295
H 42.342784 2.031131 -0.532425
C 38.020664 0.179828 0.055895
H 39.418659 -1.985362 0.756423
H 41.986633 -2.205708 0.794860
H 46.525334 2.098371 -0.915180
H 46.863597 -1.975924 0.832373
H 49.097842 2.217168 -1.092533
H 49.389208 -1.888667 0.596028
H 53.691517 2.215919 -0.582909
H 56.301826 2.186403 -0.706590
H 53.727624 -2.044320 0.761798
H 56.295672 -2.044187 0.668476
H 60.800896 2.638142 0.517729
H 60.472498 -1.708888 -0.382740
H 63.356329 2.463767 0.574918
H 63.012933 -1.892731 -0.404540
H 67.755803 1.867492 0.647483
H 67.551381 -2.277751 -0.983776
H 70.309752 1.716472 0.731894
H 70.109180 -2.414213 -0.979730
H 74.834781 0.999010 1.830864
H 74.498203 -2.085334 -1.370710
H 78.846416 -0.847833 -0.002100
H 77.368794 0.828016 1.714013
H 77.109261 -2.232744 -1.515878
C 73.064312 -0.484175 0.223384
C 74.515335 -0.555793 0.229464
C 75.175801 -1.461866 -0.677495
C 75.323966 0.282237 1.076170
C 76.736076 0.177851 1.012925
C 76.580953 -1.531857 -0.762683
C 77.387546 -0.725863 0.097844
144
# input_step: 1
C 0.434431 -0.307547 -0.127534
C -0.517028 0.694900 0.282497
C -0.131313 -1.537908 -0.580410
C -1.897484 0.453979 0.259430
C -2.472253 -0.801539 -0.138331
C -1.521875 -1.815568 -0.577611
C 1.881813 -0.045643 -0.032347
C 3.087103 0.315614 -0.026981
C 4.545176 0.437605 0.032297
C 5.203026 1.646910 -0.394149
C 5.374890 -0.643730 0.515996
C 6.609107 1.760051 -0.390729
C 6.783778 -0.512899 0.539223
C 7.429092 0.682368 0.076180
C 8.874103 0.762114 0.058003
C 10.119742 0.696241 0.120583
C 11.576552 0.662065 0.092775
C 12.239035 -0.319403 0.893872
C 12.353342 1.513994 -0.757476
C 13.761213 1.341734 -0.839042
C 13.651893 -0.489931 0.825416
C 14.416405 0.348462 -0.033972
C 15.859034 0.178298 -0.034830
C 17.066568 0.079661 0.185200
C 18.499671 0.018815 0.162711
C 19.235149 -1.205927 0.369536
C 19.235553 1.210700 -0.143086
C 20.649411 1.160785 -0.244591
C 20.645502 -1.244221 0.333157
C 21.384522 -0.051603 -0.013306
C 22.831621 -0.118320 -0.141234
C 24.074112 -0.270471 -0.164777
C 25.544326 -0.241488 -0.123110
C 26.304513 -1.291854 0.505621
C 26.194488 0.939792 -0.625543
C 27.589679 1.051285 -0.533100
C 27.712757 -1.122207 0.607282
C 28.363125 0.027582 0.092112
C 29.815004 0.104005 0.129811
H -2.614376 1.299512 0.574225
H -0.139931 1.688435 0.621974
H -3.903270 -1.000534 -0.129854
H -1.910718 -2.819265 -0.944055
H 0.604960 -2.352941 -0.981993
H 4.576999 2.534957 -0.796094
H 4.915542 -1.614337 0.892758
H 7.106296 2.702851 -0.803121
H 7.417205 -1.354450 0.947355
H 11.797762 2.302655 -1.402800
H 14.396701 1.972929 -1.494251
H 11.611821 -0.985597 1.577690
H 14.193670 -1.290258 1.443106
H 18.702422 2.182319 -0.330885
H 18.613251 -2.139588 0.633317
H 21.234677 2.140714 -0.490318
H 21.232989 -2.230235 0.516889
H 25.509720 1.743427 -1.083204
H 25.753975 -2.215172 0.945518
H 28.154704 1.980687 -0.974035
H 28.358808 -1.907910 1.113504
H 32.685431 2.212221 -0.747723
H 32.538660 -2.041673 0.563819
C 36.785928 -0.011439 0.062093
H 35.263215 2.061204 -0.723888
H 35.117368 -2.141442 0.515913
C 31.047629 0.066419 0.025467
C 32.482247 0.086487 -0.043285
C 33.175790 -1.129567 0.316545
C 33.234104 1.223974 -0.445391
C 34.653564 1.170932 -0.445310
C 34.567879 -1.192177 0.315263
C 35.345911 -0.009021 -0.003867
C 42.338428 -0.090464 0.131268
C 41.686777 1.134547 -0.237211
C 41.490524 -1.199962 0.492307
C 40.279156 1.258618 -0.254176
C 39.460768 0.121135 0.083915
C 40.086846 -1.098706 0.469557
C 43.801354 -0.113637 0.143126
C 45.048175 -0.083274 0.097592
C 46.507930 0.050528 -0.008829
C 47.164498 1.206051 -0.547228
C 47.355597 -1.031640 0.408917
C 48.590933 1.267572 -0.670721
C 48.761527 -0.995551 0.253453
C 49.420897 0.182872 -0.240209
C 50.883968 0.253071 -0.226917
C 52.111953 0.171196 -0.000863
C 53.566952 0.105412 0.084531
C 54.284618 -1.090153 0.440249
C 54.298029 1.280262 -0.315487
C 55.696084 1.269998 -0.400037
C 55.707925 -1.087286 0.372595
C 56.430759 0.071879 -0.060279
C 57.870461 0.202374 -0.079278
C 59.058373 0.512362 0.123934
C 60.506289 0.478644 0.114039
C 61.119289 -0.787847 -0.157636
C 61.329377 1.638149 0.351180
C 62.723483 1.519843 0.382889
C 62.527232 -0.886275 -0.166779
C 63.365817 0.260949 0.121612
C 64.816281 0.078665 0.095115
C 66.034447 -0.123305 -0.045832
C 67.493284 -0.197265 -0.135559
C 68.167742 -1.356778 -0.620520
C 68.282983 0.910445 0.291188
C 69.709682 0.835156 0.328754
C 69.572034 -1.448337 -0.623882
C 70.374735 -0.370444 -0.111353
C 71.823650 -0.492695 0.020895
H 39.798251 2.202901 -0.538301
H 42.323037 2.053742 -0.503028
C 38.027058 0.178969 0.051735
H 39.422292 -1.969113 0.756667
H 41.988887 -2.230411 0.771630
H 46.533593 2.079181 -0.861904
H 46.859913 -1.951660 0.867042
H 49.094870 2.217743 -1.080257
H 49.409215 -1.883429 0.572587
H 53.702466 2.192881 -0.594076
H 56.336738 2.175390 -0.699256
H 53.730777 -2.059693 0.761496
H 56.299444 -2.038627 0.697424
H 60.811354 2.646509 0.519021
H 60.477492 -1.728195 -0.419080
H 63.359897 2.447270 0.554655
H 63.024369 -1.910438 -0.425239
H 67.782511 1.857273 0.607234
H 67.589211 -2.248288 -0.970867
H 70.311876 1.677365 0.694276
H 70.120835 -2.387142 -0.973223
H 74.844987 0.975877 1.815258
H 74.528725 -2.101611 -1.356742
H 78.832291 -0.881304 0.024400
H 77.341278 0.865123 1.728390
H 77.085151 -2.225031 -1.521431
C 73.067251 -0.490227 0.228782
C 74.510964 -0.546957 0.236523
C 75.177635 -1.467117 -0.674336
C 75.306719 0.280083 1.074715
C 76.734917 0.180142 1.006789
C 76.582608 -1.535727 -0.768886
C 77.378874 -0.727920 0.097045
144
# input_step: 2
C 0.434955 -0.311349 -0.129492
C -0.518247 0.694647 0.281922
C -0.128750 -1.538683 -0.576227
C -1.888280 0.446182 0.260149
C -2.481638 -0.802038 -0.137695
C -1.518019 -1.824638 -0.575466
C 1.886653 -0.047144 -0.027353
C 3.083786 0.307539 -0.018486
C 4.542678 0.434300 0.028558
C 5.201223 1.642138 -0.393898
C 5.378080 -0.648757 0.506517
C 6.605028 1.753031 -0.385050
C 6.783593 -0.518898 0.533087
C 7.431733 0.678460 0.083032
C 8.884415 0.759647 0.063006
C 10.115711 0.693756 0.131442
C 11.580122 0.665945 0.090133
C 12.239289 -0.310323 0.887484
C 12.350793 1.519360 -0.758274
C 13.762905 1.340452 -0.835175
C 13.663987 -0.491239 0.817713
C 14.416937 0.351176 -0.031488
C 15.875605 0.180393 -0.027484
C 17.058411 0.073304 0.178243
C 18.488529 0.015685 0.156705
C 19.238157 -1.207637 0.366108
C 19.227668 1.209389 -0.148930
C 20.648975 1.159255 -0.241714
C 20.650508 -1.241286 0.336076
C 21.389325 -0.046464 -0.018308
C 22.834389 -0.129466 -0.140707
C 24.065890 -0.274305 -0.163313
C 25.557944 -0.253448 -0.135662
C 26.297404 -1.302849 0.500850
C 26.206000 0.942636 -0.620965
C 27.589557 1.049938 -0.536974
C 27.720331 -1.112866 0.605234
C 28.357758 0.026371 0.090461
C 29.826440 0.104521 0.122674
H -2.568245 1.293888 0.537548
H -0.148201 1.640220 0.601923
H -3.844789 -1.025998 -0.149380
H -1.910613 -2.790871 -0.936576
H 0.594247 -2.334297 -1.003135
H 4.627079 2.542020 -0.793122
H 4.943247 -1.586147 0.872055
H 7.094509 2.657790 -0.806257
H 7.391251 -1.321224 0.938957
H 11.811542 2.296994 -1.394744
H 14.353604 1.949706 -1.457631
H 11.636357 -0.944171 1.563445
H 14.199872 -1.280488 1.398070
H 18.732884 2.153243 -0.329467
H 18.629992 -2.103405 0.654310
H 21.213313 2.137910 -0.470448
H 21.252324 -2.191356 0.515912
H 25.510063 1.706314 -1.054992
H 25.745956 -2.200663 0.947580
H 28.144901 1.959024 -1.000751
H 28.345070 -1.863695 1.117609
H 32.680464 2.200912 -0.727577
H 32.558305 -2.006691 0.552679
C 36.791387 -0.005688 0.065073
H 35.232179 2.043215 -0.702492
H 35.121479 -2.095856 0.447403
C 31.041421 0.069087 0.026837
C 32.480408 0.093002 -0.052238
C 33.184346 -1.131433 0.322567
C 33.230634 1.223712 -0.443889
C 34.662314 1.178721 -0.455584
C 34.562841 -1.197959 0.316984
C 35.346698 -0.001675 -0.004339
C 42.346972 -0.099315 0.137240
C 41.689675 1.131433 -0.230935
C 41.481288 -1.195931 0.497761
C 40.277429 1.267783 -0.250733
C 39.455958 0.115598 0.082475
C 40.078295 -1.099790 0.467675
C 43.815188 -0.116611 0.146649
C 45.040165 -0.077356 0.097830
C 46.508796 0.056447 -0.007921
C 47.157955 1.207460 -0.545677
C 47.350866 -1.033635 0.412448
C 48.591174 1.268201 -0.674705
C 48.768031 -1.008620 0.247377
C 49.417162 0.181417 -0.236501
C 50.888975 0.258858 -0.225074
C 52.100425 0.168872 0.001248
C 53.570222 0.109263 0.090788
C 54.278717 -1.091388 0.433632
C 54.299278 1.288702 -0.315360
C 55.691854 1.285846 -0.403798
C 55.706488 -1.082127 0.377794
C 56.429150 0.073294 -0.057230
C 57.877793 0.213499 -0.065288
C 59.052040 0.514603 0.112764
C 60.505326 0.480966 0.109443
C 61.117956 -0.793801 -0.158251
C 61.333245 1.646635 0.348989
C 62.723665 1.517983 0.383801
C 62.525568 -0.891512 -0.171806
C 63.365204 0.265345 0.117632
C 64.820325 0.076023 0.097124
C 66.017417 -0.119660 -0.040941
C 67.492871 -0.198612 -0.132597
C 68.166453 -1.343513 -0.621348
C 68.269171 0.911639 0.292445
C 69.714848 0.845803 0.330297
C 69.565157 -1.445970 -0.621688
C 70.377346 -0.371645 -0.109903
C 71.827367 -0.494608 0.029951
H 39.817150 2.150104 -0.518205
H 42.290609 2.055104 -0.468548
C 38.027798 0.177113 0.047717
H 39.439797 -1.937351 0.751305
H 41.978718 -2.227501 0.742461
H 46.553387 2.045811 -0.805095
H 46.866912 -1.909638 0.891214
H 49.079493 2.197114 -1.059142
H 49.414133 -1.859589 0.543253
H 53.724017 2.154792 -0.599735
H 56.353445 2.145645 -0.686280
H 53.746501 -2.049672 0.753452
H 56.288617 -2.009838 0.717044
H 60.833484 2.632990 0.517128
H 60.497391 -1.722107 -0.446970
H 63.351826 2.412238 0.532211
H 63.024248 -1.901540 -0.438480
H 67.816281 1.831641 0.563593
H 67.633271 -2.204201 -0.952899
H 70.305863 1.628610 0.652847
H 70.118705 -2.341428 -0.960376
H 74.862183 0.941999 1.786611
H 74.571952 -2.105193 -1.328897
H 78.767011 -0.906979 0.053985
H 77.301278 0.884075 1.724153
H 77.050551 -2.204757 -1.511873
C 73.064293 -0.496203 0.232872
C 74.506749 -0.538540 0.243303
C 75.178871 -1.472806 -0.672157
C 75.290228 0.278186 1.073797
C 76.735286 0.182912 1.001405
C 76.585201 -1.539888 -0.775280
C 77.372274 -0.729868 0.096461
144
# input_step: 3
C 0.435280 -0.314738 -0.130988
C -0.519039 0.694133 0.281333
C -0.125481 -1.540823 -0.573194
C -1.881972 0.439428 0.260847
C -2.491126 -0.803101 -0.137366
C -1.515824 -1.832596 -0.573492
C 1.895199 -0.047141 -0.023132
C 3.076361 0.298284 -0.010672
C 4.540358 0.431609 0.025212
C 5.199339 1.638800 -0.394244
C 5.380985 -0.653586 0.498040
C 6.601569 1.747108 -0.380377
C 6.783294 -0.524540 0.527815
C 7.434144 0.674981 0.089098
C 8.897788 0.757027 0.067997
C 10.108102 0.692112 0.140856
C 11.583078 0.669269 0.087849
C 12.240029 -0.302893 0.882310
C 12.348285 1.524866 -0.759825
C 13.763649 1.339304 -0.831247
C 13.674415 -0.492958 0.811193
C 14.417749 0.353435 -0.029201
C 15.892183 0.182473 -0.020385
C 17.048988 0.067512 0.171256
C 18.479231 0.012905 0.151062
C 19.240587 -1.209926 0.363782
C 19.221290 1.208254 -0.154365
C 20.649090 1.159148 -0.239247
C 20.655108 -1.239469 0.338576
C 21.393514 -0.041835 -0.022950
C 22.841347 -0.140033 -0.140146
C 24.054532 -0.277231 -0.161902
C 25.569335 -0.264625 -0.146579
C 26.290792 -1.313006 0.496779
C 26.215843 0.945394 -0.617146
C 27.589904 1.050417 -0.541492
C 27.726819 -1.105591 0.604090
C 28.353389 0.025315 0.088740
C 29.839574 0.104853 0.115779
H -2.516930 1.276502 0.501352
H -0.157075 1.595099 0.583239
H -3.740373 -1.040742 -0.166481
H -1.903470 -2.753361 -0.925099
H 0.568413 -2.301658 -1.012113
H 4.680525 2.529093 -0.781710
H 4.970766 -1.549480 0.848228
H 7.076523 2.604935 -0.801583
H 7.362813 -1.285460 0.927020
H 11.836428 2.276434 -1.374801
H 14.315004 1.930582 -1.426470
H 11.666759 -0.898647 1.541234
H 14.194808 -1.258913 1.349221
H 18.762384 2.118909 -0.326115
H 18.656779 -2.058011 0.667706
H 21.182161 2.113520 -0.448215
H 21.255797 -2.137468 0.512007
H 25.525438 1.662470 -1.023458
H 25.752612 -2.168531 0.938914
H 28.123390 1.919652 -1.013471
H 28.324201 -1.815932 1.115194
H 32.688884 2.168540 -0.704016
H 32.584115 -1.965139 0.540642
C 36.800887 0.000412 0.067565
H 35.202187 2.024650 -0.683550
H 35.122034 -2.053254 0.388753
C 31.032646 0.071994 0.028273
C 32.478875 0.098765 -0.060131
C 33.191819 -1.133752 0.327932
C 33.227132 1.224734 -0.442864
C 34.669702 1.185620 -0.464340
C 34.558466 -1.202732 0.318146
C 35.347438 0.005197 -0.005097
C 42.354358 -0.107112 0.142769
C 41.692415 1.129907 -0.225314
C 41.474027 -1.194020 0.502804
C 40.276902 1.274426 -0.247260
C 39.451458 0.111085 0.081148
C 40.071019 -1.101218 0.466174
C 43.830885 -0.119485 0.149689
C 45.029858 -0.071610 0.098108
C 46.509776 0.061300 -0.006961
C 47.152495 1.208814 -0.544247
C 47.346836 -1.036374 0.415958
C 48.591297 1.269466 -0.678286
C 48.773831 -1.020846 0.242312
C 49.413738 0.180314 -0.233407
C 50.897178 0.263587 -0.222406
C 52.086204 0.166869 0.002420
C 53.572756 0.112413 0.096190
C 54.273350 -1.093129 0.427876
C 54.300788 1.296660 -0.315535
C 55.688570 1.300501 -0.407209
C 55.705769 -1.078397 0.382917
C 56.427477 0.074867 -0.054149
C 57.887359 0.224135 -0.051659
C 59.043284 0.515611 0.101728
C 60.504302 0.483125 0.105311
C 61.116988 -0.800190 -0.159389
C 61.336056 1.654585 0.347175
C 62.724441 1.516913 0.384405
C 62.524420 -0.897389 -0.176696
C 63.364491 0.268473 0.113950
C 64.826723 0.073418 0.098452
C 65.999254 -0.115737 -0.036174
C 67.492052 -0.199596 -0.129777
C 68.165750 -1.332201 -0.622159
C 68.257846 0.912969 0.293548
C 69.718393 0.853989 0.330985
C 69.559814 -1.443902 -0.619590
C 70.379765 -0.372531 -0.108262
C 71.835495 -0.496193 0.039005
H 39.830264 2.111967 -0.502685
H 42.252969 2.038736 -0.433600
C 38.023402 0.174535 0.044152
H 39.462836 -1.901776 0.743448
H 41.957566 -2.200052 0.711850
H 46.574198 2.014305 -0.754963
H 46.880454 -1.860388 0.905400
H 49.056624 2.163663 -1.034053
H 49.407440 -1.826775 0.513468
H 53.746750 2.116099 -0.602287
H 56.352552 2.106619 -0.671114
H 53.770324 -2.019252 0.739458
H 56.266582 -1.964784 0.726748
H 60.861997 2.604920 0.512943
H 60.527299 -1.694336 -0.464074
H 63.337744 2.369919 0.511485
H 63.013584 -1.869710 -0.443693
H 67.845678 1.806379 0.525229
H 67.670189 -2.161899 -0.936819
H 70.303286 1.592716 0.618822
H 70.105761 -2.289718 -0.945560
H 74.878144 0.910182 1.757744
H 74.616760 -2.100904 -1.295386
H 78.659127 -0.921916 0.083156
H 77.255373 0.883897 1.702852
H 77.014237 -2.180057 -1.494588
C 73.056312 -0.501645 0.235519
C 74.502954 -0.531489 0.249093
C 75.179858 -1.478105 -0.670660
C 75.276319 0.276129 1.072794
C 76.736748 0.185841 0.997018
C 76.587833 -1.543539 -0.780865
C 77.368445 -0.731494 0.096393
144
# input_step: 4
C 0.435488 -0.317467 -0.131864
C -0.519531 0.691900 0.280295
C -0.122204 -1.543588 -0.571369
C -1.878453 0.433759 0.261182
C -2.499495 -0.804799 -0.137398
C -1.514957 -1.837933 -0.571513
C 1.905032 -0.046175 -0.019993
C 3.067154 0.289180 -0.004193
C 4.538416 0.429730 0.022527
C 5.197814 1.636516 -0.394832
C 5.383591 -0.656735 0.490782
C 6.598990 1.741809 -0.376684
C 6.782511 -0.528294 0.523330
C 7.436101 0.672211 0.093872
C 8.911010 0.754575 0.072492
C 10.099592 0.691306 0.148185
C 11.585178 0.671828 0.086119
C 12.241676 -0.297021 0.878099
C 12.346261 1.529443 -0.761445
C 13.762621 1.337451 -0.826633
C 13.682053 -0.494241 0.805779
C 14.418863 0.355112 -0.027355
C 15.904805 0.184580 -0.014574
C 17.041581 0.062535 0.165268
C 18.472702 0.010740 0.146200
C 19.242635 -1.211710 0.362494
C 19.217254 1.206144 -0.158692
C 20.649525 1.159756 -0.237253
C 20.658693 -1.238053 0.340287
C 21.396646 -0.038082 -0.026808
C 22.850092 -0.148894 -0.139597
C 24.042947 -0.279249 -0.160770
C 25.577555 -0.274186 -0.154894
C 26.285483 -1.320774 0.493353
C 26.223399 0.947004 -0.614031
C 27.590600 1.052055 -0.546061
C 27.731274 -1.100259 0.603521
C 28.350489 0.024525 0.087072
C 29.851106 0.105040 0.109882
H -2.474455 1.258632 0.472522
H -0.159120 1.575270 0.573549
H -3.610840 -1.043499 -0.178904
H -1.894731 -2.722646 -0.915305
H 0.537197 -2.265786 -1.011747
H 4.724993 2.506132 -0.767075
H 4.988670 -1.522888 0.829134
H 7.059798 2.561006 -0.794778
H 7.344401 -1.264189 0.919399
H 11.864096 2.251461 -1.351848
H 14.297259 1.930189 -1.416562
H 11.691817 -0.862341 1.522587
H 14.185333 -1.237848 1.308878
H 18.780048 2.097687 -0.324141
H 18.683433 -2.019472 0.675804
H 21.149888 2.079682 -0.428002
H 21.249248 -2.085160 0.507941
H 25.546022 1.626406 -0.997117
H 25.767970 -2.131710 0.924904
H 28.098021 1.875196 -1.014976
H 28.306206 -1.778676 1.113125
H 32.704998 2.128234 -0.682386
H 32.604209 -1.934078 0.532259
C 36.811967 0.006088 0.069375
H 35.186500 2.023050 -0.673260
H 35.127815 -2.032992 0.347260
C 31.024265 0.074777 0.029457
C 32.477893 0.103333 -0.066247
C 33.197892 -1.135318 0.331922
C 33.223959 1.226255 -0.442211
C 34.674503 1.189704 -0.470449
C 34.554814 -1.204874 0.318386
C 35.348117 0.011233 -0.006104
C 42.359812 -0.113101 0.147378
C 41.694437 1.129363 -0.220510
C 41.469360 -1.193770 0.506765
C 40.278231 1.276260 -0.243509
C 39.447707 0.108026 0.080010
C 40.066102 -1.101812 0.464856
C 43.844739 -0.122087 0.152117
C 45.020511 -0.066495 0.098361
C 46.510786 0.064597 -0.005999
C 47.149356 1.208648 -0.542589
C 47.344149 -1.038741 0.418775
C 48.591029 1.270276 -0.680740
C 48.777934 -1.030215 0.238257
C 49.410897 0.179636 -0.231265
C 50.905831 0.267012 -0.219507
C 52.072598 0.165319 0.002939
C 53.574333 0.114548 0.100303
C 54.269142 -1.094403 0.423250
C 54.302897 1.302357 -0.315622
C 55.686344 1.311823 -0.409697
C 55.705654 -1.075545 0.387280
C 56.425879 0.076462 -0.051256
C 57.896129 0.232946 -0.039901
C 59.035000 0.515884 0.092123
C 60.503400 0.484935 0.101965
C 61.116643 -0.805701 -0.160836
C 61.337768 1.660398 0.345712
C 62.725390 1.515793 0.384477
C 62.523825 -0.902655 -0.180875
C 63.363657 0.270007 0.110887
C 64.832598 0.071422 0.099261
C 65.983833 -0.112288 -0.032190
C 67.490804 -0.199963 -0.127248
C 68.166223 -1.322550 -0.622394
C 68.250608 0.912944 0.293965
C 69.719193 0.857522 0.330183
C 69.556300 -1.441277 -0.617396
C 70.381687 -0.372925 -0.106505
C 71.845615 -0.497369 0.047030
H 39.826196 2.112224 -0.499156
H 42.220990 2.015618 -0.404054
C 38.015823 0.171714 0.041319
H 39.479134 -1.878847 0.738149
H 41.931232 -2.160047 0.685618
H 46.581796 2.005429 -0.721283
H 46.893276 -1.819436 0.914054
H 49.035035 2.132938 -1.012472
H 49.398001 -1.800161 0.490216
H 53.758292 2.095321 -0.606331
H 56.341410 2.073123 -0.658839
H 53.793872 -1.981954 0.724105
H 56.241526 -1.917921 0.729286
H 60.888037 2.576842 0.508640
H 60.557738 -1.656928 -0.471334
H 63.326881 2.336518 0.496549
H 62.997613 -1.827534 -0.442904
H 67.858316 1.802782 0.500793
H 67.685811 -2.142241 -0.930867
H 70.317140 1.591089 0.602127
H 70.090025 -2.249834 -0.935092
H 74.883068 0.896645 1.745704
H 74.648834 -2.098447 -1.268951
H 78.528383 -0.925092 0.108101
H 77.213814 0.870206 1.672541
H 76.987429 -2.163051 -1.481951
C 73.045674 -0.506114 0.236849
C 74.499811 -0.526571 0.253296
C 75.181111 -1.481886 -0.669200
C 75.266646 0.273233 1.070762
C 76.738502 0.188345 0.993582
C 76.589449 -1.545686 -0.784441
C 77.367547 -0.732663 0.096994
144
# input_step: 5
C 0.435641 -0.319538 -0.132126
C -0.519728 0.687484 0.278668
C -0.119512 -1.546184 -0.570300
C -1.876709 0.428529 0.260967
C -2.505527 -0.806967 -0.137742
C -1.514666 -1.839978 -0.569182
C 1.914168 -0.044892 -0.017839
C 3.058211 0.280848 0.001037
C 4.536842 0.428551 0.020460
C 5.196928 1.634355 -0.395247
C 5.386153 -0.657327 0.484234
C 6.597062 1.736119 -0.373418
C 6.780991 -0.529528 0.519181
C 7.437619 0.670072 0.097453
C 8.921989 0.752396 0.076414
C 10.092317 0.691135 0.153718
C 11.586488 0.673711 0.084919
C 12.244643 -0.291846 0.873999
C 12.345126 1.532360 -0.762438
C 13.760036 1.334820 -0.821303
C 13.686702 -0.494286 0.800770
C 14.420290 0.356372 -0.026019
C 15.911812 0.186883 -0.010275
C 17.037964 0.058125 0.160539
C 18.468793 0.009183 0.142038
C 19.244842 -1.212039 0.361790
C 19.215507 1.202255 -0.161808
C 20.649877 1.160073 -0.235524
C 20.660899 -1.235965 0.341072
C 21.398762 -0.035146 -0.029907
C 22.858509 -0.155922 -0.139052
C 24.033159 -0.280662 -0.159978
C 25.582877 -0.282223 -0.160787
C 26.281821 -1.325455 0.490049
C 26.229261 0.946677 -0.611149
C 27.591352 1.053881 -0.550243
C 27.733440 -1.095945 0.602959
C 28.348999 0.023969 0.085461
C 29.859186 0.105145 0.105071
H -2.449710 1.251055 0.453800
H -0.152360 1.585842 0.574385
H -3.481773 -1.037923 -0.186772
H -1.890219 -2.711328 -0.912108
H 0.510419 -2.236991 -1.008155
H 4.753384 2.485333 -0.754643
H 4.991568 -1.519551 0.819798
H 7.050879 2.538098 -0.792168
H 7.342615 -1.266372 0.921054
H 11.886485 2.233620 -1.335305
H 14.300879 1.949074 -1.428117
H 11.702926 -0.844247 1.517818
H 14.179542 -1.229320 1.285036
H 18.781452 2.099558 -0.325556
H 18.700906 -2.000443 0.683639
H 21.124126 2.050455 -0.412619
H 21.242151 -2.048692 0.506619
H 25.560839 1.608878 -0.981816
H 25.783740 -2.103507 0.912447
H 28.076691 1.838054 -1.012073
H 28.298973 -1.760923 1.118453
H 32.721124 2.094158 -0.666475
H 32.609467 -1.925489 0.530423
C 36.822610 0.011080 0.070581
H 35.188064 2.043601 -0.672477
H 35.141792 -2.038904 0.321732
C 31.018258 0.077340 0.030254
C 32.477464 0.106765 -0.070650
C 33.203103 -1.135219 0.334396
C 33.221431 1.227314 -0.441662
C 34.676806 1.190584 -0.473963
C 34.551856 -1.204165 0.317725
C 35.348751 0.016609 -0.007343
C 42.363406 -0.117334 0.151105
C 41.695331 1.128832 -0.216215
C 41.466858 -1.194145 0.509481
C 40.280831 1.273981 -0.239602
C 39.444732 0.106371 0.079020
C 40.063713 -1.100734 0.463416
C 43.854730 -0.124501 0.154084
C 45.014179 -0.061945 0.098535
C 46.511801 0.066475 -0.005055
C 47.148557 1.206561 -0.540587
C 47.343055 -1.039849 0.420456
C 48.589982 1.269553 -0.681713
C 48.779833 -1.035880 0.234744
C 49.408603 0.179317 -0.230042
C 50.912879 0.269392 -0.216782
C 52.061627 0.164102 0.003226
C 53.575051 0.115781 0.103211
C 54.266319 -1.094206 0.419369
C 54.305754 1.305255 -0.315355
C 55.684588 1.319103 -0.411034
C 55.705741 -1.072497 0.390565
C 56.424388 0.078065 -0.048529
C 57.902183 0.239646 -0.030188
C 59.029101 0.515972 0.084149
C 60.502683 0.486429 0.099339
C 61.117167 -0.809401 -0.162290
C 61.338818 1.663176 0.344376
C 62.726034 1.513691 0.383927
C 62.523520 -0.906357 -0.184129
C 63.362682 0.270109 0.108433
C 64.835954 0.070280 0.099820
C 65.973003 -0.109638 -0.029160
C 67.489144 -0.199669 -0.124954
C 68.167812 -1.313996 -0.621924
C 68.247299 0.911277 0.293658
C 69.717806 0.856998 0.328145
C 69.554026 -1.437162 -0.614753
C 70.383070 -0.372736 -0.104589
C 71.855565 -0.498192 0.053771
H 39.809016 2.143221 -0.505226
H 42.202415 1.998257 -0.382456
C 38.007176 0.168951 0.039138
H 39.480942 -1.878426 0.738912
H 41.906145 -2.121802 0.666803
H 46.572621 2.024221 -0.704195
H 46.898926 -1.797792 0.924373
H 49.022470 2.119473 -0.999956
H 49.395895 -1.792428 0.477472
H 53.753218 2.100058 -0.614953
H 56.330706 2.057191 -0.653323
H 53.809600 -1.952347 0.712038
H 56.221666 -1.882479 0.730130
H 60.904571 2.562760 0.506515
H 60.580199 -1.623311 -0.473453
H 63.327133 2.323542 0.488801
H 62.983016 -1.789207 -0.440162
H 67.852745 1.825208 0.490352
H 67.678507 -2.149637 -0.936667
H 70.343564 1.618161 0.599924
H 70.080154 -2.234531 -0.933904
H 74.874957 0.905212 1.755000
H 74.660187 -2.106825 -1.258221
H 78.395949 -0.919249 0.128002
H 77.183744 0.852536 1.642866
H 76.976139 -2.161987 -1.483461
C 73.034613 -0.509692 0.237319
C 74.497221 -0.523706 0.255986
C 75.183127 -1.483572 -0.667068
C 75.260933 0.269308 1.067408
C 76.739729 0.189967 0.990503
C 76.589394 -1.545855 -0.785521
C 77.368482 -0.733354 0.098261
144
# input_step: 6
C 0.435768 -0.321104 -0.131799
C -0.519242 0.681446 0.276635
C -0.117815 -1.548051 -0.569339
C -1.875773 0.423001 0.260166
C -2.506594 -0.809068 -0.138250
C -1.514419 -1.839025 -0.566215
C 1.921780 -0.043728 -0.016376
C 3.050449 0.272983 0.005634
C 4.535479 0.427808 0.018782
C 5.196868 1.631193 -0.395142
C 5.388810 -0.655655 0.477690
C 6.595515 1.729074 -0.369978
C 6.778953 -0.528829 0.515060
C 7.438865 0.668250 0.100311
C 8.930201 0.750354 0.080084
C 10.087236 0.691412 0.158269
C 11.587206 0.675152 0.084123
C 12.249147 -0.286575 0.869363
C 12.345238 1.533236 -0.762280
C 13.756691 1.332080 -0.815682
C 13.688807 -0.492733 0.795330
C 14.422150 0.357515 -0.025133
C 15.913414 0.189682 -0.007088
C 17.038419 0.053696 0.156656
C 18.466914 0.008058 0.138100
C 19.247707 -1.210504 0.361288
C 19.215315 1.196638 -0.164154
C 20.649651 1.159065 -0.233680
C 20.661538 -1.232110 0.340904
C 21.400157 -0.032701 -0.032588
C 22.865641 -0.161741 -0.138442
C 24.025841 -0.281868 -0.159479
C 25.586114 -0.289547 -0.165074
C 26.279898 -1.326827 0.486006
C 26.234403 0.944020 -0.607948
C 27.591784 1.055009 -0.553898
C 27.733701 -1.091845 0.602151
C 28.348672 0.023507 0.083782
C 29.863489 0.105224 0.100892
H -2.444079 1.258176 0.443968
H -0.141325 1.614646 0.581335
H -3.389289 -1.033729 -0.192759
H -1.891577 -2.721227 -0.916475
H 0.495249 -2.222770 -1.007843
H 4.763131 2.476407 -0.748195
H 4.981042 -1.537948 0.818756
H 7.051516 2.538330 -0.796353
H 7.353834 -1.287662 0.930076
H 11.898554 2.231698 -1.332103
H 14.315014 1.976756 -1.449679
H 11.699701 -0.843975 1.528666
H 14.181336 -1.238655 1.278752
H 18.770231 2.119275 -0.329630
H 18.706265 -2.004879 0.695114
H 21.109999 2.037680 -0.403188
H 21.242567 -2.036048 0.510348
H 25.564730 1.613292 -0.978786
H 25.792830 -2.094260 0.907529
H 28.065422 1.817438 -1.012323
H 28.303416 -1.762289 1.133508
H 32.730397 2.077719 -0.658329
H 32.599968 -1.938629 0.534797
C 36.832039 0.015673 0.071388
H 35.199769 2.077127 -0.677862
H 35.159196 -2.061214 0.307639
C 31.015277 0.079885 0.030674
C 32.477499 0.109406 -0.073857
C 33.208014 -1.133466 0.335694
C 33.219828 1.226981 -0.440891
C 34.677679 1.189301 -0.475628
C 34.549838 -1.201445 0.316203
C 35.349383 0.021962 -0.008915
C 42.365643 -0.120312 0.154365
C 41.694846 1.127500 -0.211802
C 41.465602 -1.193969 0.511097
C 40.283711 1.269493 -0.235711
C 39.442266 0.105866 0.078053
C 40.063108 -1.098028 0.461737
C 43.860620 -0.127041 0.155905
C 45.011491 -0.057447 0.098612
C 46.512898 0.067343 -0.004082
C 47.149111 1.203371 -0.538265
C 47.343466 -1.039493 0.421008
C 48.587852 1.266765 -0.681209
C 48.779671 -1.038303 0.231232
C 49.406592 0.179242 -0.229550
C 50.917474 0.271201 -0.214277
C 52.053686 0.162968 0.003646
C 53.575097 0.116419 0.105271
C 54.264855 -1.091587 0.415463
C 54.309075 1.306281 -0.314866
C 55.682591 1.322792 -0.411257
C 55.705535 -1.067939 0.392764
C 56.422897 0.079850 -0.045696
C 57.904922 0.244767 -0.021586
C 59.026215 0.516247 0.077074
C 60.502119 0.487814 0.097114
C 61.118970 -0.810688 -0.163510
C 61.339645 1.662796 0.342897
C 62.726372 1.510226 0.382738
C 62.523034 -0.907819 -0.186522
C 63.361490 0.269033 0.106336
C 64.835952 0.069991 0.100359
C 65.966695 -0.107696 -0.026859