 Entering Gaussian System, Link 0=/opt/app/gaussian09/e01/g09/g09.exec
 Input=mini_6_pp_opt.gjf
 Output=mini_6_pp_opt.log
 Initial command:
 /opt/app/gaussian09/e01/g09/l1.exe "./Gau-12467.inp" -scrdir="./"
 Entering Link 1 = /opt/app/gaussian09/e01/g09/l1.exe PID=     12471.
  
 Copyright (c) 1988,1990,1992,1993,1995,1998,2003,2009,2015,
            Gaussian, Inc.  All Rights Reserved.
  
 This is part of the Gaussian(R) 09 program.  It is based on
 the Gaussian(R) 03 system (copyright 2003, Gaussian, Inc.),
 the Gaussian(R) 98 system (copyright 1998, Gaussian, Inc.),
 the Gaussian(R) 94 system (copyright 1995, Gaussian, Inc.),
 the Gaussian 92(TM) system (copyright 1992, Gaussian, Inc.),
 the Gaussian 90(TM) system (copyright 1990, Gaussian, Inc.),
 the Gaussian 88(TM) system (copyright 1988, Gaussian, Inc.),
 the Gaussian 86(TM) system (copyright 1986, Carnegie Mellon
 University), and the Gaussian 82(TM) system (copyright 1983,
 Carnegie Mellon University). Gaussian is a federally registered
 trademark of Gaussian, Inc.
  
 This software contains proprietary and confidential information,
 including trade secrets, belonging to Gaussian, Inc.
  
 This software is provided under written license and may be
 used, copied, transmitted, or stored only in accord with that
 written license.
  
 The following legend is applicable only to US Government
 contracts under FAR:
  
                    RESTRICTED RIGHTS LEGEND
  
 Use, reproduction and disclosure by the US Government is
 subject to restrictions as set forth in subparagraphs (a)
 and (c) of the Commercial Computer Software - Restricted
 Rights clause in FAR 52.227-19.
  
 Gaussian, Inc.
 340 Quinnipiac St., Bldg. 40, Wallingford CT 06492
  
  
 ---------------------------------------------------------------
 Warning -- This program may not be used in any manner that
 competes with the business of Gaussian, Inc. or will provide
 assistance to any competitor of Gaussian, Inc.  The licensee
 of this program is prohibited from giving any competitor of
 Gaussian, Inc. access to this program.  By using this program,
 the user acknowledges that Gaussian, Inc. is engaged in the
 business of creating and licensing software in the field of
 computational chemistry and represents and warrants to the
 licensee that it is not a competitor of Gaussian, Inc. and that
 it will not use this program in any manner prohibited above.
 ---------------------------------------------------------------
  

 Cite this work as:
 Gaussian 09, Revision E.01,
 M. J. Frisch, G. W. Trucks, H. B. Schlegel, G. E. Scuseria, 
 M. A. Robb, J. R. Cheeseman, G. Scalmani, V. Barone, B. Mennucci, 
 G. A. Petersson, H. Nakatsuji, M. Caricato, X. Li, H. P. Hratchian, 
 A. F. Izmaylov, J. Bloino, G. Zheng, J. L. Sonnenberg, M. Hada, 
 M. Ehara, K. Toyota, R. Fukuda, J. Hasegawa, M. Ishida, T. Nakajima, 
 Y. Honda, O. Kitao, H. Nakai, T. Vreven, J. A. Montgomery, Jr., 
 J. E. Peralta, F. Ogliaro, M. Bearpark, J. J. Heyd, E. Brothers, 
 K. N. Kudin, V. N. Staroverov, T. Keith, R. Kobayashi, J. Normand, 
 K. Raghavachari, A. Rendell, J. C. Burant, S. S. Iyengar, J. Tomasi, 
 M. Cossi, N. Rega, J. M. Millam, M. Klene, J. E. Knox, J. B. Cross, 
 V. Bakken, C. Adamo, J. Jaramillo, R. Gomperts, R. E. Stratmann, 
 O. Yazyev, A. J. Austin, R. Cammi, C. Pomelli, J. W. Ochterski, 
 R. L. Martin, K. Morokuma, V. G. Zakrzewski, G. A. Voth, 
 P. Salvador, J. J. Dannenberg, S. Dapprich, A. D. Daniels, 
 O. Farkas, J. B. Foresman, J. V. Ortiz, J. Cioslowski, 
 and D. J. Fox, Gaussian, Inc., Wallingford CT, 2013.
 
 ******************************************
 Gaussian 09:  ES64L-G09RevE.01 30-Nov-2015
                 7-Jun-2021 
 ******************************************
 %chk=mini_6_pp_opt.chk
 -----------------------------------------------------
 #p opt b3lyp/6-31g(d) geom=connectivity int=ultrafine
 -----------------------------------------------------
 1/14=-1,18=20,19=15,26=4,38=1,57=2/1,3;
 2/9=110,12=2,17=6,18=5,40=1/2;
 3/5=1,6=6,7=1,11=2,16=1,25=1,30=1,71=1,74=-5,75=-5/1,2,3;
 4//1;
 5/5=2,38=5/2;
 6/7=2,8=2,9=2,10=2,28=1/1;
 7//1,2,3,16;
 1/14=-1,18=20,19=15,26=4/3(2);
 2/9=110/2;
 99//99;
 2/9=110/2;
 3/5=1,6=6,7=1,11=2,16=1,25=1,30=1,71=1,74=-5,75=-5/1,2,3;
 4/5=5,16=3,69=1/1;
 5/5=2,38=5/2;
 7//1,2,3,16;
 1/14=-1,18=20,19=15,26=4/3(-5);
 2/9=110/2;
 6/7=2,8=2,9=2,10=2,19=2,28=1/1;
 99/9=1/99;
 Leave Link    1 at Mon Jun  7 01:04:27 2021, MaxMem=           0 cpu:         0.0
 (Enter /opt/app/gaussian09/e01/g09/l101.exe)
 -------------------
 Title Card Required
 -------------------
 Symbolic Z-matrix:
 Charge =  0 Multiplicity = 1
 C                    -2.52902  -2.8335    0.1436 
 H                    -3.59563  -2.83376   0.22879 
 C                    -1.85047  -1.66047   0.13196 
 H                    -0.78387  -1.66022   0.04677 
 C                    -2.6145   -0.32785   0.24136 
 H                    -3.68111  -0.3281    0.32655 
 C                    -1.93595   0.84518   0.22972 
 H                    -0.86935   0.84543   0.14453 
 C                    -2.69998   2.17781   0.33912 
 H                    -3.76658   2.17756   0.42431 
 C                    -2.02143   3.35084   0.32749 
 H                    -0.95483   3.35109   0.2423 
 C                    -2.78546   4.68346   0.43689 
 H                    -3.85206   4.68321   0.52208 
 C                    -2.10691   5.85649   0.42526 
 H                    -1.0403    5.85674   0.34007 
 C                    -1.765    -4.16613   0.03421 
 H                    -0.69839  -4.16588  -0.05098 
 C                    -2.44355  -5.33916   0.04584 
 H                    -3.51015  -5.33941   0.13103 
 C                    -1.67952  -6.67179  -0.06355 
 H                    -0.61291  -6.67154  -0.14874 
 C                    -2.35807  -7.84482  -0.05191 
 H                    -3.42467  -7.84507   0.03328 
 C                    -2.87093   7.18912   0.53466 
 H                    -2.25239   7.91624   1.01798 
 H                    -3.12816   7.53423  -0.44495 
 H                    -3.76311   7.0428    1.10695 
 C                    -1.59404  -9.17744  -0.1613 
 H                    -2.13231  -9.94103   0.36033 
 H                    -1.49737  -9.44961  -1.19158 
 H                    -0.62159  -9.0676    0.27135 
 
 NAtoms=     32 NQM=       32 NQMF=       0 NMMI=      0 NMMIF=      0
                NMic=       0 NMicF=      0.
                    Isotopes and Nuclear Properties:
 (Nuclear quadrupole moments (NQMom) in fm**2, nuclear magnetic moments (NMagM)
  in nuclear magnetons)

  Atom         1           2           3           4           5           6           7           8           9          10
 IAtWgt=          12           1          12           1          12           1          12           1          12           1
 AtmWgt=  12.0000000   1.0078250  12.0000000   1.0078250  12.0000000   1.0078250  12.0000000   1.0078250  12.0000000   1.0078250
 NucSpn=           0           1           0           1           0           1           0           1           0           1
 AtZEff=   0.0000000   0.0000000   0.0000000   0.0000000   0.0000000   0.0000000   0.0000000   0.0000000   0.0000000   0.0000000
 NQMom=    0.0000000   0.0000000   0.0000000   0.0000000   0.0000000   0.0000000   0.0000000   0.0000000   0.0000000   0.0000000
 NMagM=    0.0000000   2.7928460   0.0000000   2.7928460   0.0000000   2.7928460   0.0000000   2.7928460   0.0000000   2.7928460
 AtZNuc=   6.0000000   1.0000000   6.0000000   1.0000000   6.0000000   1.0000000   6.0000000   1.0000000   6.0000000   1.0000000

  Atom        11          12          13          14          15          16          17          18          19          20
 IAtWgt=          12           1          12           1          12           1          12           1          12           1
 AtmWgt=  12.0000000   1.0078250  12.0000000   1.0078250  12.0000000   1.0078250  12.0000000   1.0078250  12.0000000   1.0078250
 NucSpn=           0           1           0           1           0           1           0           1           0           1
 AtZEff=   0.0000000   0.0000000   0.0000000   0.0000000   0.0000000   0.0000000   0.0000000   0.0000000   0.0000000   0.0000000
 NQMom=    0.0000000   0.0000000   0.0000000   0.0000000   0.0000000   0.0000000   0.0000000   0.0000000   0.0000000   0.0000000
 NMagM=    0.0000000   2.7928460   0.0000000   2.7928460   0.0000000   2.7928460   0.0000000   2.7928460   0.0000000   2.7928460
 AtZNuc=   6.0000000   1.0000000   6.0000000   1.0000000   6.0000000   1.0000000   6.0000000   1.0000000   6.0000000   1.0000000

  Atom        21          22          23          24          25          26          27          28          29          30
 IAtWgt=          12           1          12           1          12           1           1           1          12           1
 AtmWgt=  12.0000000   1.0078250  12.0000000   1.0078250  12.0000000   1.0078250   1.0078250   1.0078250  12.0000000   1.0078250
 NucSpn=           0           1           0           1           0           1           1           1           0           1
 AtZEff=   0.0000000   0.0000000   0.0000000   0.0000000   0.0000000   0.0000000   0.0000000   0.0000000   0.0000000   0.0000000
 NQMom=    0.0000000   0.0000000   0.0000000   0.0000000   0.0000000   0.0000000   0.0000000   0.0000000   0.0000000   0.0000000
 NMagM=    0.0000000   2.7928460   0.0000000   2.7928460   0.0000000   2.7928460   2.7928460   2.7928460   0.0000000   2.7928460
 AtZNuc=   6.0000000   1.0000000   6.0000000   1.0000000   6.0000000   1.0000000   1.0000000   1.0000000   6.0000000   1.0000000

  Atom        31          32
 IAtWgt=           1           1
 AtmWgt=   1.0078250   1.0078250
 NucSpn=           1           1
 AtZEff=   0.0000000   0.0000000
 NQMom=    0.0000000   0.0000000
 NMagM=    2.7928460   2.7928460
 AtZNuc=   1.0000000   1.0000000
 Leave Link  101 at Mon Jun  7 01:04:27 2021, MaxMem=    33554432 cpu:         0.1
 (Enter /opt/app/gaussian09/e01/g09/l103.exe)

 GradGradGradGradGradGradGradGradGradGradGradGradGradGradGradGradGradGrad
 Berny optimization.
 Initialization pass.
                           ----------------------------
                           !    Initial Parameters    !
                           ! (Angstroms and Degrees)  !
 --------------------------                            --------------------------
 ! Name  Definition              Value          Derivative Info.                !
 --------------------------------------------------------------------------------
 ! R1    R(1,2)                  1.07           estimate D2E/DX2                !
 ! R2    R(1,3)                  1.3552         estimate D2E/DX2                !
 ! R3    R(1,17)                 1.54           estimate D2E/DX2                !
 ! R4    R(3,4)                  1.07           estimate D2E/DX2                !
 ! R5    R(3,5)                  1.54           estimate D2E/DX2                !
 ! R6    R(5,6)                  1.07           estimate D2E/DX2                !
 ! R7    R(5,7)                  1.3552         estimate D2E/DX2                !
 ! R8    R(7,8)                  1.07           estimate D2E/DX2                !
 ! R9    R(7,9)                  1.54           estimate D2E/DX2                !
 ! R10   R(9,10)                 1.07           estimate D2E/DX2                !
 ! R11   R(9,11)                 1.3552         estimate D2E/DX2                !
 ! R12   R(11,12)                1.07           estimate D2E/DX2                !
 ! R13   R(11,13)                1.54           estimate D2E/DX2                !
 ! R14   R(13,14)                1.07           estimate D2E/DX2                !
 ! R15   R(13,15)                1.3552         estimate D2E/DX2                !
 ! R16   R(15,16)                1.07           estimate D2E/DX2                !
 ! R17   R(15,25)                1.54           estimate D2E/DX2                !
 ! R18   R(17,18)                1.07           estimate D2E/DX2                !
 ! R19   R(17,19)                1.3552         estimate D2E/DX2                !
 ! R20   R(19,20)                1.07           estimate D2E/DX2                !
 ! R21   R(19,21)                1.54           estimate D2E/DX2                !
 ! R22   R(21,22)                1.07           estimate D2E/DX2                !
 ! R23   R(21,23)                1.3552         estimate D2E/DX2                !
 ! R24   R(23,24)                1.07           estimate D2E/DX2                !
 ! R25   R(23,29)                1.54           estimate D2E/DX2                !
 ! R26   R(25,26)                1.07           estimate D2E/DX2                !
 ! R27   R(25,27)                1.07           estimate D2E/DX2                !
 ! R28   R(25,28)                1.07           estimate D2E/DX2                !
 ! R29   R(29,30)                1.07           estimate D2E/DX2                !
 ! R30   R(29,31)                1.07           estimate D2E/DX2                !
 ! R31   R(29,32)                1.07           estimate D2E/DX2                !
 ! A1    A(2,1,3)              120.0            estimate D2E/DX2                !
 ! A2    A(2,1,17)             120.0            estimate D2E/DX2                !
 ! A3    A(3,1,17)             120.0            estimate D2E/DX2                !
 ! A4    A(1,3,4)              120.0            estimate D2E/DX2                !
 ! A5    A(1,3,5)              120.0            estimate D2E/DX2                !
 ! A6    A(4,3,5)              120.0            estimate D2E/DX2                !
 ! A7    A(3,5,6)              120.0            estimate D2E/DX2                !
 ! A8    A(3,5,7)              120.0            estimate D2E/DX2                !
 ! A9    A(6,5,7)              120.0            estimate D2E/DX2                !
 ! A10   A(5,7,8)              120.0            estimate D2E/DX2                !
 ! A11   A(5,7,9)              120.0            estimate D2E/DX2                !
 ! A12   A(8,7,9)              120.0            estimate D2E/DX2                !
 ! A13   A(7,9,10)             120.0            estimate D2E/DX2                !
 ! A14   A(7,9,11)             120.0            estimate D2E/DX2                !
 ! A15   A(10,9,11)            120.0            estimate D2E/DX2                !
 ! A16   A(9,11,12)            120.0            estimate D2E/DX2                !
 ! A17   A(9,11,13)            120.0            estimate D2E/DX2                !
 ! A18   A(12,11,13)           120.0            estimate D2E/DX2                !
 ! A19   A(11,13,14)           120.0            estimate D2E/DX2                !
 ! A20   A(11,13,15)           120.0            estimate D2E/DX2                !
 ! A21   A(14,13,15)           120.0            estimate D2E/DX2                !
 ! A22   A(13,15,16)           120.0            estimate D2E/DX2                !
 ! A23   A(13,15,25)           120.0            estimate D2E/DX2                !
 ! A24   A(16,15,25)           120.0            estimate D2E/DX2                !
 ! A25   A(1,17,18)            120.0            estimate D2E/DX2                !
 ! A26   A(1,17,19)            120.0            estimate D2E/DX2                !
 ! A27   A(18,17,19)           120.0            estimate D2E/DX2                !
 ! A28   A(17,19,20)           120.0            estimate D2E/DX2                !
 ! A29   A(17,19,21)           120.0            estimate D2E/DX2                !
 ! A30   A(20,19,21)           120.0            estimate D2E/DX2                !
 ! A31   A(19,21,22)           120.0            estimate D2E/DX2                !
 ! A32   A(19,21,23)           120.0            estimate D2E/DX2                !
 ! A33   A(22,21,23)           120.0            estimate D2E/DX2                !
 ! A34   A(21,23,24)           120.0            estimate D2E/DX2                !
 ! A35   A(21,23,29)           120.0            estimate D2E/DX2                !
 ! A36   A(24,23,29)           120.0            estimate D2E/DX2                !
 ! A37   A(15,25,26)           109.4712         estimate D2E/DX2                !
 ! A38   A(15,25,27)           109.4712         estimate D2E/DX2                !
 ! A39   A(15,25,28)           109.4712         estimate D2E/DX2                !
 ! A40   A(26,25,27)           109.4712         estimate D2E/DX2                !
 ! A41   A(26,25,28)           109.4712         estimate D2E/DX2                !
 ! A42   A(27,25,28)           109.4712         estimate D2E/DX2                !
 ! A43   A(23,29,30)           109.4712         estimate D2E/DX2                !
 ! A44   A(23,29,31)           109.4712         estimate D2E/DX2                !
 ! A45   A(23,29,32)           109.4712         estimate D2E/DX2                !
 ! A46   A(30,29,31)           109.4712         estimate D2E/DX2                !
 ! A47   A(30,29,32)           109.4712         estimate D2E/DX2                !
 ! A48   A(31,29,32)           109.4712         estimate D2E/DX2                !
 ! D1    D(2,1,3,4)            179.9999         estimate D2E/DX2                !
 ! D2    D(2,1,3,5)             -0.0002         estimate D2E/DX2                !
 ! D3    D(17,1,3,4)             0.0001         estimate D2E/DX2                !
 ! D4    D(17,1,3,5)           180.0            estimate D2E/DX2                !
 ! D5    D(2,1,17,18)         -179.9999         estimate D2E/DX2                !
 ! D6    D(2,1,17,19)            0.0            estimate D2E/DX2                !
 ! D7    D(3,1,17,18)            0.0            estimate D2E/DX2                !
 ! D8    D(3,1,17,19)          179.9998         estimate D2E/DX2                !
 ! D9    D(1,3,5,6)              0.0001         estimate D2E/DX2                !
 ! D10   D(1,3,5,7)            179.9999         estimate D2E/DX2                !
 ! D11   D(4,3,5,6)           -179.9999         estimate D2E/DX2                !
 ! D12   D(4,3,5,7)             -0.0002         estimate D2E/DX2                !
 ! D13   D(3,5,7,8)              0.0            estimate D2E/DX2                !
 ! D14   D(3,5,7,9)           -179.9998         estimate D2E/DX2                !
 ! D15   D(6,5,7,8)            179.9998         estimate D2E/DX2                !
 ! D16   D(6,5,7,9)              0.0            estimate D2E/DX2                !
 ! D17   D(5,7,9,10)            -0.0001         estimate D2E/DX2                !
 ! D18   D(5,7,9,11)           179.9999         estimate D2E/DX2                !
 ! D19   D(8,7,9,10)          -179.9998         estimate D2E/DX2                !
 ! D20   D(8,7,9,11)             0.0001         estimate D2E/DX2                !
 ! D21   D(7,9,11,12)            0.0001         estimate D2E/DX2                !
 ! D22   D(7,9,11,13)          179.9999         estimate D2E/DX2                !
 ! D23   D(10,9,11,12)        -180.0            estimate D2E/DX2                !
 ! D24   D(10,9,11,13)          -0.0001         estimate D2E/DX2                !
 ! D25   D(9,11,13,14)           0.0002         estimate D2E/DX2                !
 ! D26   D(9,11,13,15)         179.9999         estimate D2E/DX2                !
 ! D27   D(12,11,13,14)       -180.0            estimate D2E/DX2                !
 ! D28   D(12,11,13,15)         -0.0003         estimate D2E/DX2                !
 ! D29   D(11,13,15,16)          0.0001         estimate D2E/DX2                !
 ! D30   D(11,13,15,25)       -179.9999         estimate D2E/DX2                !
 ! D31   D(14,13,15,16)        179.9999         estimate D2E/DX2                !
 ! D32   D(14,13,15,25)         -0.0001         estimate D2E/DX2                !
 ! D33   D(13,15,25,26)        150.0            estimate D2E/DX2                !
 ! D34   D(13,15,25,27)        -90.0            estimate D2E/DX2                !
 ! D35   D(13,15,25,28)         30.0            estimate D2E/DX2                !
 ! D36   D(16,15,25,26)        -30.0            estimate D2E/DX2                !
 ! D37   D(16,15,25,27)         90.0            estimate D2E/DX2                !
 ! D38   D(16,15,25,28)       -150.0            estimate D2E/DX2                !
 ! D39   D(1,17,19,20)           0.0001         estimate D2E/DX2                !
 ! D40   D(1,17,19,21)        -179.9999         estimate D2E/DX2                !
 ! D41   D(18,17,19,20)        179.9999         estimate D2E/DX2                !
 ! D42   D(18,17,19,21)         -0.0001         estimate D2E/DX2                !
 ! D43   D(17,19,21,22)          0.0001         estimate D2E/DX2                !
 ! D44   D(17,19,21,23)        180.0            estimate D2E/DX2                !
 ! D45   D(20,19,21,22)       -180.0            estimate D2E/DX2                !
 ! D46   D(20,19,21,23)         -0.0001         estimate D2E/DX2                !
 ! D47   D(19,21,23,24)          0.0            estimate D2E/DX2                !
 ! D48   D(19,21,23,29)        180.0            estimate D2E/DX2                !
 ! D49   D(22,21,23,24)        179.9999         estimate D2E/DX2                !
 ! D50   D(22,21,23,29)         -0.0001         estimate D2E/DX2                !
 ! D51   D(21,23,29,30)        150.0            estimate D2E/DX2                !
 ! D52   D(21,23,29,31)        -90.0            estimate D2E/DX2                !
 ! D53   D(21,23,29,32)         30.0            estimate D2E/DX2                !
 ! D54   D(24,23,29,30)        -30.0            estimate D2E/DX2                !
 ! D55   D(24,23,29,31)         90.0            estimate D2E/DX2                !
 ! D56   D(24,23,29,32)       -150.0            estimate D2E/DX2                !
 --------------------------------------------------------------------------------
 Trust Radius=3.00D-01 FncErr=1.00D-07 GrdErr=1.00D-06
 Number of steps in this run=    145 maximum allowed number of steps=    192.
 GradGradGradGradGradGradGradGradGradGradGradGradGradGradGradGradGradGrad

 Leave Link  103 at Mon Jun  7 01:04:27 2021, MaxMem=    33554432 cpu:         0.0
 (Enter /opt/app/gaussian09/e01/g09/l202.exe)
                          Input orientation:                          
 ---------------------------------------------------------------------
 Center     Atomic      Atomic             Coordinates (Angstroms)
 Number     Number       Type             X           Y           Z
 ---------------------------------------------------------------------
      1          6           0       -2.529025   -2.833505    0.143597
      2          1           0       -3.595628   -2.833757    0.228790
      3          6           0       -1.850473   -1.660475    0.131964
      4          1           0       -0.783870   -1.660223    0.046772
      5          6           0       -2.614503   -0.327849    0.241356
      6          1           0       -3.681106   -0.328101    0.326548
      7          6           0       -1.935951    0.845181    0.229724
      8          1           0       -0.869348    0.845433    0.144534
      9          6           0       -2.699980    2.177807    0.339120
     10          1           0       -3.766583    2.177555    0.424312
     11          6           0       -2.021428    3.350837    0.327491
     12          1           0       -0.954825    3.351089    0.242299
     13          6           0       -2.785458    4.683463    0.436886
     14          1           0       -3.852061    4.683211    0.522078
     15          6           0       -2.106905    5.856493    0.425258
     16          1           0       -1.040302    5.856744    0.340067
     17          6           0       -1.764995   -4.166131    0.034206
     18          1           0       -0.698392   -4.165879   -0.050985
     19          6           0       -2.443547   -5.339161    0.045843
     20          1           0       -3.510150   -5.339413    0.131035
     21          6           0       -1.679517   -6.671787   -0.063547
     22          1           0       -0.612914   -6.671535   -0.148739
     23          6           0       -2.358069   -7.844817   -0.051910
     24          1           0       -3.424672   -7.845069    0.033283
     25          6           0       -2.870934    7.189118    0.534655
     26          1           0       -2.252390    7.916238    1.017978
     27          1           0       -3.128159    7.534231   -0.444953
     28          1           0       -3.763105    7.042802    1.106952
     29          6           0       -1.594039   -9.177443   -0.161300
     30          1           0       -2.132307   -9.941033    0.360329
     31          1           0       -1.497365   -9.449614   -1.191580
     32          1           0       -0.621593   -9.067597    0.271346
 ---------------------------------------------------------------------
                    Distance matrix (angstroms):
                    1          2          3          4          5
     1  C    0.000000
     2  H    1.070000   0.000000
     3  C    1.355200   2.105120   0.000000
     4  H    2.105120   3.052261   1.070000   0.000000
     5  C    2.509019   2.691159   1.540000   2.272510   0.000000
     6  H    2.763659   2.509019   2.272510   3.201062   1.070000
     7  C    3.727182   4.035977   2.509019   2.763659   1.355200
     8  H    4.035977   4.579972   2.691159   2.509019   2.105120
     9  C    5.018037   5.092163   3.936621   4.299700   2.509019
    10  H    5.169243   5.018037   4.299700   4.875208   2.763659
    11  C    6.207862   6.382558   5.018037   5.169243   3.727182
    12  H    6.382558   6.725053   5.092163   5.018037   4.035977
    13  C    7.527056   7.563615   6.419713   6.663399   5.018038
    14  H    7.641641   7.527056   6.663399   7.062497   5.169243
    15  C    8.704801   8.819032   7.527056   7.641641   6.207862
    16  H    8.819032   9.059077   7.563615   7.527056   6.382558
    17  C    1.540000   2.272510   2.509019   2.691159   3.936621
    18  H    2.272510   3.201062   2.763659   2.509019   4.299700
    19  C    2.509019   2.763659   3.727182   4.035977   5.018037
    20  H    2.691159   2.509019   4.035977   4.579972   5.092163
    21  C    3.936621   4.299700   5.018038   5.092164   6.419713
    22  H    4.299700   4.875208   5.169243   5.018038   6.663399
    23  C    5.018037   5.169243   6.207862   6.382558   7.527056
    24  H    5.092163   5.018037   6.382558   6.725053   7.563615
    25  C   10.036075  10.053694   8.917331   9.105202   7.527056
    26  H   10.788792  10.862296   9.626005   9.736960   8.288500
    27  H   10.401697  10.400367   9.300964   9.501340   7.908676
    28  H    9.999622   9.916936   8.964139   9.259722   7.509662
    29  C    6.419713   6.663399   7.527056   7.563615   8.917331
    30  H    7.121890   7.257547   8.288500   8.395739   9.626006
    31  H    6.827879   7.084471   7.908676   7.919420   9.300963
    32  H    6.520623   6.907059   7.509663   7.412554   8.964139
                    6          7          8          9         10
     6  H    0.000000
     7  C    2.105120   0.000000
     8  H    3.052261   1.070000   0.000000
     9  C    2.691159   1.540000   2.272510   0.000000
    10  H    2.509019   2.272510   3.201062   1.070000   0.000000
    11  C    4.035977   2.509019   2.763659   1.355200   2.105120
    12  H    4.579972   2.691159   2.509019   2.105120   3.052261
    13  C    5.092163   3.936621   4.299700   2.509019   2.691159
    14  H    5.018038   4.299700   4.875208   2.763659   2.509019
    15  C    6.382558   5.018037   5.169243   3.727182   4.035977
    16  H    6.725053   5.092163   5.018037   4.035977   4.579972
    17  C    4.299700   5.018038   5.092163   6.419713   6.663399
    18  H    4.875208   5.169243   5.018038   6.663399   7.062497
    19  C    5.169243   6.207862   6.382558   7.527056   7.641641
    20  H    5.018037   6.382558   6.725053   7.563615   7.527056
    21  C    6.663399   7.527056   7.563615   8.917331   9.105202
    22  H    7.062497   7.641642   7.527056   9.105202   9.411717
    23  C    7.641641   8.704801   8.819032  10.036075  10.132060
    24  H    7.527056   8.819032   9.059077  10.053694  10.036075
    25  C    7.563615   6.419713   6.663399   5.018038   5.092163
    26  H    8.395738   7.121890   7.257547   5.795755   5.964704
    27  H    7.919421   6.827879   7.084472   5.430413   5.464173
    28  H    7.412554   6.520623   6.907058   5.038648   4.912905
    29  C    9.105202  10.036075  10.053694  11.419949  11.575788
    30  H    9.736960  10.788792  10.862297  12.132147  12.228456
    31  H    9.501339  10.401696  10.400366  11.789243  11.956234
    32  H    9.259723   9.999622   9.916937  11.436057  11.677663
                   11         12         13         14         15
    11  C    0.000000
    12  H    1.070000   0.000000
    13  C    1.540000   2.272510   0.000000
    14  H    2.272510   3.201062   1.070000   0.000000
    15  C    2.509019   2.763659   1.355200   2.105120   0.000000
    16  H    2.691159   2.509019   2.105120   3.052261   1.070000
    17  C    7.527056   7.563615   8.917331   9.105202  10.036075
    18  H    7.641642   7.527056   9.105202   9.411717  10.132060
    19  C    8.704801   8.819032  10.036075  10.132060  11.207138
    20  H    8.819032   9.059077  10.053694  10.036075  11.287336
    21  C   10.036075  10.053694  11.419949  11.575788  12.545094
    22  H   10.132060  10.036075  11.575789  11.826763  12.629844
    23  C   11.207138  11.287336  12.545094  12.629844  13.711916
    24  H   11.287336  11.467248  12.551318  12.545094  13.770364
    25  C    3.936621   4.299700   2.509019   2.691159   1.540000
    26  H    4.623094   4.808944   3.327561   3.641061   2.148263
    27  H    4.395715   4.763861   3.003658   3.096369   2.148263
    28  H    4.155912   4.718348   2.640315   2.432624   2.148263
    29  C   12.545094  12.551319  13.924870  14.059993  15.054113
    30  H   13.292373  13.344696  14.639274  14.725904  15.797680
    31  H   12.900921  12.892182  14.284781  14.429760  15.403331
    32  H   12.497207  12.423190  13.921256  14.127403  14.998610
                   16         17         18         19         20
    16  H    0.000000
    17  C   10.053694   0.000000
    18  H   10.036075   1.070000   0.000000
    19  C   11.287336   1.355200   2.105120   0.000000
    20  H   11.467248   2.105120   3.052261   1.070000   0.000000
    21  C   12.551319   2.509019   2.691159   1.540000   2.272510
    22  H   12.545094   2.763659   2.509019   2.272510   3.201062
    23  C   13.770364   3.727182   4.035977   2.509019   2.763659
    24  H   13.911111   4.035977   4.579972   2.691159   2.509019
    25  C    2.272510  11.419949  11.575789  12.545094  12.551318
    26  H    2.483995  12.132147  12.228456  13.292373  13.344695
    27  H    2.790944  11.789244  11.956235  12.900922  12.892183
    28  H    3.067328  11.436057  11.677663  12.497207  12.423189
    29  C   15.052734   5.018038   5.092164   3.936621   4.299700
    30  H   15.835488   5.795755   5.964705   4.623095   4.808944
    31  H   15.389590   5.430412   5.464172   4.395714   4.763861
    32  H   14.930372   5.038648   4.912905   4.155912   4.718348
                   21         22         23         24         25
    21  C    0.000000
    22  H    1.070000   0.000000
    23  C    1.355200   2.105120   0.000000
    24  H    2.105120   3.052261   1.070000   0.000000
    25  C   13.924870  14.059993  15.054112  15.052733   0.000000
    26  H   14.639274  14.725903  15.797679  15.835487   1.070000
    27  H   14.284781  14.429761  15.403332  15.389590   1.070000
    28  H   13.921255  14.127402  14.998609  14.930371   1.070000
    29  C    2.509019   2.691159   1.540000   2.272510  16.431042
    30  H    3.327561   3.641061   2.148263   2.483995  17.146955
    31  H    3.003658   3.096368   2.148263   2.790944  16.784338
    32  H    2.640315   2.432624   2.148263   3.067328  16.413704
                   26         27         28         29         30
    26  H    0.000000
    27  H    1.747303   0.000000
    28  H    1.747303   1.747303   0.000000
    29  C   17.146955  16.784339  16.413703   0.000000
    30  H   17.869781  17.522131  17.078279   1.070000   0.000000
    31  H   17.522130  17.078289  16.805256   1.070000   1.747303
    32  H   17.078279  16.805257  16.435093   1.070000   1.747303
                   31         32
    31  H    0.000000
    32  H    1.747303   0.000000
 Stoichiometry    C14H18
 Framework group  C1[X(C14H18)]
 Deg. of freedom    90
 Full point group                 C1      NOp   1
 Largest Abelian subgroup         C1      NOp   1
 Largest concise Abelian subgroup C1      NOp   1
                         Standard orientation:                         
 ---------------------------------------------------------------------
 Center     Atomic      Atomic             Coordinates (Angstroms)
 Number     Number       Type             X           Y           Z
 ---------------------------------------------------------------------
      1          6           0       -1.823474   -0.384595    0.000007
      2          1           0       -1.769777   -1.453246    0.000006
      3          6           0       -0.685320    0.351050    0.000007
      4          1           0       -0.739018    1.419702    0.000007
      5          6           0        0.685320   -0.351050    0.000009
      6          1           0        0.739018   -1.419702    0.000008
      7          6           0        1.823474    0.384595    0.000008
      8          1           0        1.769777    1.453247    0.000006
      9          6           0        3.194115   -0.317505    0.000004
     10          1           0        3.247812   -1.386157    0.000004
     11          6           0        4.332269    0.418140    0.000001
     12          1           0        4.278571    1.486792    0.000002
     13          6           0        5.702909   -0.283960   -0.000001
     14          1           0        5.756607   -1.352612   -0.000002
     15          6           0        6.841063    0.451685   -0.000006
     16          1           0        6.787366    1.520336   -0.000007
     17          6           0       -3.194115    0.317505    0.000005
     18          1           0       -3.247812    1.386157    0.000004
     19          6           0       -4.332269   -0.418140    0.000001
     20          1           0       -4.278571   -1.486791    0.000001
     21          6           0       -5.702909    0.283960   -0.000002
     22          1           0       -5.756607    1.352612   -0.000002
     23          6           0       -6.841063   -0.451685   -0.000006
     24          1           0       -6.787365   -1.520337   -0.000008
     25          6           0        8.211704   -0.250415   -0.000010
     26          1           0        8.927450    0.364550   -0.504417
     27          1           0        8.529151   -0.413021    1.008794
     28          1           0        8.130839   -1.190596   -0.504412
     29          6           0       -8.211704    0.250415   -0.000009
     30          1           0       -8.927450   -0.364550   -0.504415
     31          1           0       -8.529150    0.413021    1.008796
     32          1           0       -8.130840    1.190596   -0.504411
 ---------------------------------------------------------------------
 Rotational constants (GHZ):      9.5376753      0.1015356      0.1005892
 Leave Link  202 at Mon Jun  7 01:04:27 2021, MaxMem=    33554432 cpu:         0.0
 (Enter /opt/app/gaussian09/e01/g09/l301.exe)
 Standard basis: 6-31G(d) (6D, 7F)
 Ernie: Thresh=  0.10000D-02 Tol=  0.10000D-05 Strict=F.
 There are   246 symmetry adapted cartesian basis functions of A   symmetry.
 There are   246 symmetry adapted basis functions of A   symmetry.
   246 basis functions,   464 primitive gaussians,   246 cartesian basis functions
    51 alpha electrons       51 beta electrons
       nuclear repulsion energy       671.8098580580 Hartrees.
 IExCor=  402 DFT=T Ex+Corr=B3LYP ExCW=0 ScaHFX=  0.200000
 ScaDFX=  0.800000  0.720000  1.000000  0.810000 ScalE2=  1.000000  1.000000
 IRadAn=      5 IRanWt=     -1 IRanGd=            0 ICorTp=0 IEmpDi=  4
 NAtoms=   32 NActive=   32 NUniq=   32 SFac= 1.00D+00 NAtFMM=   60 NAOKFM=F Big=F
 Integral buffers will be    131072 words long.
 Raffenetti 2 integral format.
 Two-electron integral symmetry is turned on.
 Leave Link  301 at Mon Jun  7 01:04:27 2021, MaxMem=    33554432 cpu:         0.0
 (Enter /opt/app/gaussian09/e01/g09/l302.exe)
 NPDir=0 NMtPBC=     1 NCelOv=     1 NCel=       1 NClECP=     1 NCelD=      1
         NCelK=      1 NCelE2=     1 NClLst=     1 CellRange=     0.0.
 One-electron integrals computed using PRISM.
 NBasis=   246 RedAO= T EigKep=  1.95D-03  NBF=   246
 NBsUse=   246 1.00D-06 EigRej= -1.00D+00 NBFU=   246
 Precomputing XC quadrature grid using
 IXCGrd= 4 IRadAn=           5 IRanWt=          -1 IRanGd=           0 AccXCQ= 0.00D+00.
 Generated NRdTot=       0 NPtTot=           0 NUsed=           0 NTot=          32
 NSgBfM=   228   228   228   228   228 MxSgAt=    32 MxSgA2=    32.
 Leave Link  302 at Mon Jun  7 01:04:29 2021, MaxMem=    33554432 cpu:         1.5
 (Enter /opt/app/gaussian09/e01/g09/l303.exe)
 DipDrv:  MaxL=1.
 Leave Link  303 at Mon Jun  7 01:04:29 2021, MaxMem=    33554432 cpu:         0.0
 (Enter /opt/app/gaussian09/e01/g09/l401.exe)
 ExpMin= 1.61D-01 ExpMax= 3.05D+03 ExpMxC= 4.57D+02 IAcc=3 IRadAn=         5 AccDes= 0.00D+00
 Harris functional with IExCor=  402 and IRadAn=       5 diagonalized for initial guess.
 HarFok:  IExCor=  402 AccDes= 0.00D+00 IRadAn=         5 IDoV= 1 UseB2=F ITyADJ=14
 ICtDFT=  3500011 ScaDFX=  1.000000  1.000000  1.000000  1.000000
 FoFCou: FMM=F IPFlag=           0 FMFlag=      100000 FMFlg1=           0
         NFxFlg=           0 DoJE=T BraDBF=F KetDBF=T FulRan=T
         wScrn=  0.000000 ICntrl=     500 IOpCl=  0 I1Cent=   200000004 NGrid=           0
         NMat0=    1 NMatS0=      1 NMatT0=    0 NMatD0=    1 NMtDS0=    0 NMtDT0=    0
 Petite list used in FoFCou.
 Harris En= -544.325278135322    
 JPrj=0 DoOrth=F DoCkMO=F.
 Leave Link  401 at Mon Jun  7 01:04:44 2021, MaxMem=    33554432 cpu:        14.8
 (Enter /opt/app/gaussian09/e01/g09/l502.exe)
 Closed shell SCF:
 Using DIIS extrapolation, IDIIS=  1040.
 Integral symmetry usage will be decided dynamically.
 IVT=      203452 IEndB=      203452 NGot=    33554432 MDV=    33428383
 LenX=    33428383 LenY=    33367426
 Requested convergence on RMS density matrix=1.00D-08 within 128 cycles.
 Requested convergence on MAX density matrix=1.00D-06.
 Requested convergence on             energy=1.00D-06.
 No special actions if energy rises.
 Fock matrices will be formed incrementally for  20 cycles.
 Integral accuracy reduced to 1.0D-05 until final iterations.

 Cycle   1  Pass 0  IDiag  1:
 FoFJK:  IHMeth= 1 ICntrl=       0 DoSepK=F KAlg= 0 I1Cent=   0 FoldK=F
 IRaf= 590000000 NMat=   1 IRICut=       1 DoRegI=T DoRafI=F ISym2E= 0.
 FoFCou: FMM=F IPFlag=           0 FMFlag=      100000 FMFlg1=           0
         NFxFlg=           0 DoJE=F BraDBF=F KetDBF=F FulRan=T
         wScrn=  0.000000 ICntrl=       0 IOpCl=  0 I1Cent=           0 NGrid=           0
         NMat0=    1 NMatS0=      1 NMatT0=    0 NMatD0=    1 NMtDS0=    0 NMtDT0=    0
 Symmetry not used in FoFCou.
 E= -543.822915498858    
 DIIS: error= 4.52D-02 at cycle   1 NSaved=   1.
 NSaved= 1 IEnMin= 1 EnMin= -543.822915498858     IErMin= 1 ErrMin= 4.52D-02
 ErrMax= 4.52D-02  0.00D+00 EMaxC= 1.00D-01 BMatC= 3.45D-01 BMatP= 3.45D-01
 IDIUse=3 WtCom= 5.48D-01 WtEn= 4.52D-01
 Coeff-Com:  0.100D+01
 Coeff-En:   0.100D+01
 Coeff:      0.100D+01
 Gap=     0.131 Goal=   None    Shift=    0.000
 GapD=    0.131 DampG=1.000 DampE=0.500 DampFc=0.5000 IDamp=-1.
 Damping current iteration by 5.00D-01
 RMSDP=5.15D-03 MaxDP=1.35D-01              OVMax= 1.61D-01

 Cycle   2  Pass 0  IDiag  1:
 RMSU=  2.51D-03    CP:  9.72D-01
 E= -544.022858260795     Delta-E=       -0.199942761937 Rises=F Damp=T
 DIIS: error= 7.13D-03 at cycle   2 NSaved=   2.
 NSaved= 2 IEnMin= 2 EnMin= -544.022858260795     IErMin= 2 ErrMin= 7.13D-03
 ErrMax= 7.13D-03  0.00D+00 EMaxC= 1.00D-01 BMatC= 1.36D-02 BMatP= 3.45D-01
 IDIUse=3 WtCom= 9.29D-01 WtEn= 7.13D-02
 Coeff-Com: -0.478D-01 0.105D+01
 Coeff-En:   0.000D+00 0.100D+01
 Coeff:     -0.444D-01 0.104D+01
 Gap=     0.134 Goal=   None    Shift=    0.000
 RMSDP=8.05D-04 MaxDP=1.55D-02 DE=-2.00D-01 OVMax= 8.81D-02

 Cycle   3  Pass 0  IDiag  1:
 RMSU=  7.97D-04    CP:  9.67D-01  9.83D-01
 E= -544.214213914881     Delta-E=       -0.191355654085 Rises=F Damp=F
 DIIS: error= 2.91D-03 at cycle   3 NSaved=   3.
 NSaved= 3 IEnMin= 3 EnMin= -544.214213914881     IErMin= 3 ErrMin= 2.91D-03
 ErrMax= 2.91D-03  0.00D+00 EMaxC= 1.00D-01 BMatC= 2.17D-03 BMatP= 1.36D-02
 IDIUse=3 WtCom= 9.71D-01 WtEn= 2.91D-02
 Coeff-Com: -0.335D-01 0.248D+00 0.786D+00
 Coeff-En:   0.000D+00 0.000D+00 0.100D+01
 Coeff:     -0.326D-01 0.241D+00 0.792D+00
 Gap=     0.135 Goal=   None    Shift=    0.000
 RMSDP=3.65D-04 MaxDP=1.12D-02 DE=-1.91D-01 OVMax= 3.40D-02

 Cycle   4  Pass 0  IDiag  1:
 RMSU=  3.35D-04    CP:  9.66D-01  9.94D-01  8.24D-01
 E= -544.214523451974     Delta-E=       -0.000309537093 Rises=F Damp=F
 DIIS: error= 3.45D-03 at cycle   4 NSaved=   4.
 NSaved= 4 IEnMin= 4 EnMin= -544.214523451974     IErMin= 3 ErrMin= 2.91D-03
 ErrMax= 3.45D-03  0.00D+00 EMaxC= 1.00D-01 BMatC= 1.70D-03 BMatP= 2.17D-03
 IDIUse=3 WtCom= 9.65D-01 WtEn= 3.45D-02
 Coeff-Com: -0.147D-01 0.662D-01 0.485D+00 0.464D+00
 Coeff-En:   0.000D+00 0.000D+00 0.468D+00 0.532D+00
 Coeff:     -0.142D-01 0.639D-01 0.484D+00 0.466D+00
 Gap=     0.135 Goal=   None    Shift=    0.000
 RMSDP=2.22D-04 MaxDP=8.75D-03 DE=-3.10D-04 OVMax= 2.47D-02

 Cycle   5  Pass 0  IDiag  1:
 RMSU=  8.27D-05    CP:  9.66D-01  1.00D+00  8.93D-01  4.11D-01
 E= -544.216404396840     Delta-E=       -0.001880944866 Rises=F Damp=F
 DIIS: error= 7.52D-04 at cycle   5 NSaved=   5.
 NSaved= 5 IEnMin= 5 EnMin= -544.216404396840     IErMin= 5 ErrMin= 7.52D-04
 ErrMax= 7.52D-04  0.00D+00 EMaxC= 1.00D-01 BMatC= 1.55D-04 BMatP= 1.70D-03
 IDIUse=3 WtCom= 9.92D-01 WtEn= 7.52D-03
 Coeff-Com: -0.575D-02 0.186D-01 0.233D+00 0.291D+00 0.464D+00
 Coeff-En:   0.000D+00 0.000D+00 0.000D+00 0.132D-01 0.987D+00
 Coeff:     -0.571D-02 0.185D-01 0.231D+00 0.289D+00 0.468D+00
 Gap=     0.135 Goal=   None    Shift=    0.000
 RMSDP=5.08D-05 MaxDP=2.37D-03 DE=-1.88D-03 OVMax= 5.24D-03

 Cycle   6  Pass 0  IDiag  1:
 RMSU=  2.45D-05    CP:  9.66D-01  1.00D+00  8.90D-01  4.77D-01  5.34D-01
 E= -544.216565652630     Delta-E=       -0.000161255790 Rises=F Damp=F
 DIIS: error= 9.30D-05 at cycle   6 NSaved=   6.
 NSaved= 6 IEnMin= 6 EnMin= -544.216565652630     IErMin= 6 ErrMin= 9.30D-05
 ErrMax= 9.30D-05  0.00D+00 EMaxC= 1.00D-01 BMatC= 4.25D-06 BMatP= 1.55D-04
 IDIUse=1 WtCom= 1.00D+00 WtEn= 0.00D+00
 Coeff-Com: -0.951D-03 0.131D-02 0.513D-01 0.816D-01 0.202D+00 0.665D+00
 Coeff:     -0.951D-03 0.131D-02 0.513D-01 0.816D-01 0.202D+00 0.665D+00
 Gap=     0.135 Goal=   None    Shift=    0.000
 RMSDP=9.03D-06 MaxDP=3.40D-04 DE=-1.61D-04 OVMax= 4.46D-04

 Initial convergence to 1.0D-05 achieved.  Increase integral accuracy.
 Cycle   7  Pass 1  IDiag  1:
 E= -544.216539554915     Delta-E=        0.000026097715 Rises=F Damp=F
 DIIS: error= 3.89D-05 at cycle   1 NSaved=   1.
 NSaved= 1 IEnMin= 1 EnMin= -544.216539554915     IErMin= 1 ErrMin= 3.89D-05
 ErrMax= 3.89D-05  0.00D+00 EMaxC= 1.00D-01 BMatC= 3.05D-07 BMatP= 3.05D-07
 IDIUse=1 WtCom= 1.00D+00 WtEn= 0.00D+00
 Coeff-Com:  0.100D+01
 Coeff:      0.100D+01
 Gap=     0.135 Goal=   None    Shift=    0.000
 RMSDP=9.03D-06 MaxDP=3.40D-04 DE= 2.61D-05 OVMax= 4.88D-04

 Cycle   8  Pass 1  IDiag  1:
 RMSU=  7.67D-06    CP:  1.00D+00
 E= -544.216538917736     Delta-E=        0.000000637179 Rises=F Damp=F
 DIIS: error= 7.93D-05 at cycle   2 NSaved=   2.
 NSaved= 2 IEnMin= 1 EnMin= -544.216539554915     IErMin= 1 ErrMin= 3.89D-05
 ErrMax= 7.93D-05  0.00D+00 EMaxC= 1.00D-01 BMatC= 8.53D-07 BMatP= 3.05D-07
 IDIUse=1 WtCom= 1.00D+00 WtEn= 0.00D+00
 Coeff-Com:  0.634D+00 0.366D+00
 Coeff:      0.634D+00 0.366D+00
 Gap=     0.135 Goal=   None    Shift=    0.000
 RMSDP=4.00D-06 MaxDP=1.76D-04 DE= 6.37D-07 OVMax= 3.51D-04

 Cycle   9  Pass 1  IDiag  1:
 RMSU=  2.85D-06    CP:  1.00D+00  6.35D-01
 E= -544.216539836567     Delta-E=       -0.000000918831 Rises=F Damp=F
 DIIS: error= 9.65D-06 at cycle   3 NSaved=   3.
 NSaved= 3 IEnMin= 3 EnMin= -544.216539836567     IErMin= 3 ErrMin= 9.65D-06
 ErrMax= 9.65D-06  0.00D+00 EMaxC= 1.00D-01 BMatC= 1.28D-08 BMatP= 3.05D-07
 IDIUse=1 WtCom= 1.00D+00 WtEn= 0.00D+00
 Coeff-Com:  0.129D+00 0.135D+00 0.736D+00
 Coeff:      0.129D+00 0.135D+00 0.736D+00
 Gap=     0.135 Goal=   None    Shift=    0.000
 RMSDP=7.46D-07 MaxDP=2.48D-05 DE=-9.19D-07 OVMax= 6.96D-05

 Cycle  10  Pass 1  IDiag  1:
 RMSU=  5.50D-07    CP:  1.00D+00  6.79D-01  8.68D-01
 E= -544.216539846512     Delta-E=       -0.000000009945 Rises=F Damp=F
 DIIS: error= 4.23D-06 at cycle   4 NSaved=   4.
 NSaved= 4 IEnMin= 4 EnMin= -544.216539846512     IErMin= 4 ErrMin= 4.23D-06
 ErrMax= 4.23D-06  0.00D+00 EMaxC= 1.00D-01 BMatC= 4.43D-09 BMatP= 1.28D-08
 IDIUse=1 WtCom= 1.00D+00 WtEn= 0.00D+00
 Coeff-Com:  0.594D-02 0.393D-01 0.441D+00 0.514D+00
 Coeff:      0.594D-02 0.393D-01 0.441D+00 0.514D+00
 Gap=     0.135 Goal=   None    Shift=    0.000
 RMSDP=3.06D-07 MaxDP=1.11D-05 DE=-9.95D-09 OVMax= 2.72D-05

 Cycle  11  Pass 1  IDiag  1:
 RMSU=  1.03D-07    CP:  1.00D+00  6.74D-01  9.05D-01  5.17D-01
 E= -544.216539851266     Delta-E=       -0.000000004754 Rises=F Damp=F
 DIIS: error= 7.97D-07 at cycle   5 NSaved=   5.
 NSaved= 5 IEnMin= 5 EnMin= -544.216539851266     IErMin= 5 ErrMin= 7.97D-07
 ErrMax= 7.97D-07  0.00D+00 EMaxC= 1.00D-01 BMatC= 1.67D-10 BMatP= 4.43D-09
 IDIUse=1 WtCom= 1.00D+00 WtEn= 0.00D+00
 Coeff-Com: -0.733D-03 0.184D-01 0.231D+00 0.294D+00 0.458D+00
 Coeff:     -0.733D-03 0.184D-01 0.231D+00 0.294D+00 0.458D+00
 Gap=     0.135 Goal=   None    Shift=    0.000
 RMSDP=5.93D-08 MaxDP=2.25D-06 DE=-4.75D-09 OVMax= 5.78D-06

 Cycle  12  Pass 1  IDiag  1:
 RMSU=  4.01D-08    CP:  1.00D+00  6.74D-01  9.04D-01  5.47D-01  6.09D-01
 E= -544.216539851445     Delta-E=       -0.000000000179 Rises=F Damp=F
 DIIS: error= 2.13D-07 at cycle   6 NSaved=   6.
 NSaved= 6 IEnMin= 6 EnMin= -544.216539851445     IErMin= 6 ErrMin= 2.13D-07
 ErrMax= 2.13D-07  0.00D+00 EMaxC= 1.00D-01 BMatC= 1.34D-11 BMatP= 1.67D-10
 IDIUse=1 WtCom= 1.00D+00 WtEn= 0.00D+00
 Coeff-Com: -0.107D-02 0.547D-02 0.743D-01 0.101D+00 0.260D+00 0.560D+00
 Coeff:     -0.107D-02 0.547D-02 0.743D-01 0.101D+00 0.260D+00 0.560D+00
 Gap=     0.135 Goal=   None    Shift=    0.000
 RMSDP=1.72D-08 MaxDP=6.26D-07 DE=-1.79D-10 OVMax= 1.66D-06

 Cycle  13  Pass 1  IDiag  1:
 RMSU=  1.31D-08    CP:  1.00D+00  6.74D-01  9.05D-01  5.44D-01  6.47D-01
                    CP:  7.47D-01
 E= -544.216539851482     Delta-E=       -0.000000000037 Rises=F Damp=F
 DIIS: error= 4.57D-08 at cycle   7 NSaved=   7.
 NSaved= 7 IEnMin= 7 EnMin= -544.216539851482     IErMin= 7 ErrMin= 4.57D-08
 ErrMax= 4.57D-08  0.00D+00 EMaxC= 1.00D-01 BMatC= 4.35D-13 BMatP= 1.34D-11
 IDIUse=1 WtCom= 1.00D+00 WtEn= 0.00D+00
 Coeff-Com: -0.298D-03 0.441D-03 0.737D-02 0.114D-01 0.514D-01 0.188D+00
 Coeff-Com:  0.742D+00
 Coeff:     -0.298D-03 0.441D-03 0.737D-02 0.114D-01 0.514D-01 0.188D+00
 Coeff:      0.742D+00
 Gap=     0.135 Goal=   None    Shift=    0.000
 RMSDP=5.26D-09 MaxDP=1.76D-07 DE=-3.66D-11 OVMax= 6.44D-07

 SCF Done:  E(RB3LYP) =  -544.216539851     A.U. after   13 cycles
            NFock= 13  Conv=0.53D-08     -V/T= 2.0108
 KE= 5.384268471267D+02 PE=-2.601838018282D+03 EE= 8.473847732456D+02
 Leave Link  502 at Mon Jun  7 01:07:59 2021, MaxMem=    33554432 cpu:       194.8
 (Enter /opt/app/gaussian09/e01/g09/l601.exe)
 Copying SCF densities to generalized density rwf, IOpCl= 0 IROHF=0.

 **********************************************************************

            Population analysis using the SCF density.

 **********************************************************************

 Orbital symmetries:
       Occupied  (A) (A) (A) (A) (A) (A) (A) (A) (A) (A) (A) (A)
                 (A) (A) (A) (A) (A) (A) (A) (A) (A) (A) (A) (A)
                 (A) (A) (A) (A) (A) (A) (A) (A) (A) (A) (A) (A)
                 (A) (A) (A) (A) (A) (A) (A) (A) (A) (A) (A) (A)
                 (A) (A) (A)
       Virtual   (A) (A) (A) (A) (A) (A) (A) (A) (A) (A) (A) (A)
                 (A) (A) (A) (A) (A) (A) (A) (A) (A) (A) (A) (A)
                 (A) (A) (A) (A) (A) (A) (A) (A) (A) (A) (A) (A)
                 (A) (A) (A) (A) (A) (A) (A) (A) (A) (A) (A) (A)
                 (A) (A) (A) (A) (A) (A) (A) (A) (A) (A) (A) (A)
                 (A) (A) (A) (A) (A) (A) (A) (A) (A) (A) (A) (A)
                 (A) (A) (A) (A) (A) (A) (A) (A) (A) (A) (A) (A)
                 (A) (A) (A) (A) (A) (A) (A) (A) (A) (A) (A) (A)
                 (A) (A) (A) (A) (A) (A) (A) (A) (A) (A) (A) (A)
                 (A) (A) (A) (A) (A) (A) (A) (A) (A) (A) (A) (A)
                 (A) (A) (A) (A) (A) (A) (A) (A) (A) (A) (A) (A)
                 (A) (A) (A) (A) (A) (A) (A) (A) (A) (A) (A) (A)
                 (A) (A) (A) (A) (A) (A) (A) (A) (A) (A) (A) (A)
                 (A) (A) (A) (A) (A) (A) (A) (A) (A) (A) (A) (A)
                 (A) (A) (A) (A) (A) (A) (A) (A) (A) (A) (A) (A)
                 (A) (A) (A) (A) (A) (A) (A) (A) (A) (A) (A) (A)
                 (A) (A) (A)
 The electronic state is 1-A.
 Alpha  occ. eigenvalues --  -10.19077 -10.19069 -10.19004 -10.18996 -10.18993
 Alpha  occ. eigenvalues --  -10.18988 -10.18909 -10.18909 -10.18720 -10.18720
 Alpha  occ. eigenvalues --  -10.18627 -10.18627 -10.17472 -10.17472  -0.80908
 Alpha  occ. eigenvalues --   -0.80076  -0.78799  -0.76993  -0.74619  -0.71689
 Alpha  occ. eigenvalues --   -0.67871  -0.66546  -0.59453  -0.56606  -0.56016
 Alpha  occ. eigenvalues --   -0.55887  -0.54902  -0.54453  -0.47024  -0.46120
 Alpha  occ. eigenvalues --   -0.45426  -0.43176  -0.41856  -0.41779  -0.41653
 Alpha  occ. eigenvalues --   -0.41595  -0.39551  -0.38675  -0.37891  -0.37224
 Alpha  occ. eigenvalues --   -0.36959  -0.36562  -0.35577  -0.33337  -0.33131
 Alpha  occ. eigenvalues --   -0.31507  -0.31469  -0.28906  -0.25580  -0.21763
 Alpha  occ. eigenvalues --   -0.18245
 Alpha virt. eigenvalues --   -0.04780  -0.00684   0.03481   0.06785   0.08791
 Alpha virt. eigenvalues --    0.09560   0.09934   0.11171   0.12111   0.12144
 Alpha virt. eigenvalues --    0.13009   0.14175   0.14508   0.14964   0.14991
 Alpha virt. eigenvalues --    0.15639   0.16302   0.16366   0.17915   0.18821
 Alpha virt. eigenvalues --    0.19413   0.19423   0.20507   0.21722   0.21767
 Alpha virt. eigenvalues --    0.23745   0.26872   0.30547   0.32328   0.32506
 Alpha virt. eigenvalues --    0.34659   0.35093   0.36093   0.40002   0.40570
 Alpha virt. eigenvalues --    0.40930   0.42290   0.48075   0.48782   0.52372
 Alpha virt. eigenvalues --    0.52923   0.53390   0.53613   0.54673   0.55307
 Alpha virt. eigenvalues --    0.56422   0.57102   0.57968   0.57985   0.58436
 Alpha virt. eigenvalues --    0.59857   0.60390   0.61108   0.61229   0.61816
 Alpha virt. eigenvalues --    0.62965   0.63463   0.65187   0.65477   0.66235
 Alpha virt. eigenvalues --    0.68297   0.68997   0.71265   0.73092   0.74487
 Alpha virt. eigenvalues --    0.75371   0.75906   0.76880   0.76925   0.82928
 Alpha virt. eigenvalues --    0.83944   0.85690   0.87262   0.87892   0.88240
 Alpha virt. eigenvalues --    0.88615   0.88960   0.89431   0.89814   0.90045
 Alpha virt. eigenvalues --    0.90735   0.91316   0.91585   0.92881   0.92909
 Alpha virt. eigenvalues --    0.94418   0.95418   0.96966   0.97879   0.99359
 Alpha virt. eigenvalues --    0.99863   1.03123   1.03693   1.05793   1.06268
 Alpha virt. eigenvalues --    1.08027   1.10278   1.11136   1.15539   1.19090
 Alpha virt. eigenvalues --    1.19169   1.25297   1.25546   1.30031   1.31232
 Alpha virt. eigenvalues --    1.33646   1.34820   1.34905   1.35073   1.36065
 Alpha virt. eigenvalues --    1.36275   1.37420   1.38404   1.42198   1.42320
 Alpha virt. eigenvalues --    1.43477   1.47966   1.48787   1.49072   1.52181
 Alpha virt. eigenvalues --    1.56609   1.61353   1.65931   1.69497   1.74714
 Alpha virt. eigenvalues --    1.76656   1.76759   1.78924   1.78962   1.79859
 Alpha virt. eigenvalues --    1.80257   1.89059   1.89163   1.91007   1.94672
 Alpha virt. eigenvalues --    1.98569   1.99828   2.00965   2.01286   2.02349
 Alpha virt. eigenvalues --    2.03529   2.06162   2.09281   2.11901   2.12303
 Alpha virt. eigenvalues --    2.16584   2.18916   2.19865   2.20857   2.22210
 Alpha virt. eigenvalues --    2.24692   2.26665   2.27915   2.28139   2.30762
 Alpha virt. eigenvalues --    2.32060   2.32970   2.34040   2.35738   2.39179
 Alpha virt. eigenvalues --    2.40188   2.42514   2.42757   2.44392   2.44805
 Alpha virt. eigenvalues --    2.45645   2.50243   2.60563   2.66838   2.72938
 Alpha virt. eigenvalues --    2.75577   2.80800   2.81090   2.87598   2.88961
 Alpha virt. eigenvalues --    2.89788   2.89983   2.98137   2.98569   3.04279
 Alpha virt. eigenvalues --    3.04376   4.05949   4.06709   4.07902   4.09686
 Alpha virt. eigenvalues --    4.12209   4.15562   4.16698   4.25591   4.29236
 Alpha virt. eigenvalues --    4.33742   4.39080   4.44642   4.49562   4.52934
          Condensed to atoms (all electrons):
               1          2          3          4          5          6
     1  C    4.922993   0.365598   0.588657  -0.052950  -0.015479  -0.003394
     2  H    0.365598   0.598268  -0.052961   0.006073  -0.008352   0.003845
     3  C    0.588657  -0.052961   4.921381   0.365723   0.390603  -0.044863
     4  H   -0.052950   0.006073   0.365723   0.598230  -0.044863   0.003614
     5  C   -0.015479  -0.008352   0.390603  -0.044863   4.921381   0.365723
     6  H   -0.003394   0.003845  -0.044863   0.003614   0.365723   0.598230
     7  C    0.001708   0.000428  -0.015479  -0.003394   0.588657  -0.052950
     8  H    0.000428   0.000015  -0.008352   0.003845  -0.052961   0.006073
     9  C   -0.000166  -0.000005   0.003035   0.000125  -0.015475  -0.008333
    10  H   -0.000003   0.000001   0.000125   0.000005  -0.003404   0.003853
    11  C    0.000003  -0.000000  -0.000165  -0.000003   0.001675   0.000425
    12  H   -0.000000  -0.000000  -0.000005   0.000001   0.000429   0.000015
    13  C   -0.000000   0.000000   0.000001  -0.000000  -0.000167  -0.000005
    14  H    0.000000  -0.000000  -0.000000  -0.000000  -0.000003   0.000001
    15  C   -0.000000   0.000000  -0.000000   0.000000   0.000003   0.000000
    16  H    0.000000   0.000000   0.000000  -0.000000  -0.000000  -0.000000
    17  C    0.388492  -0.044824  -0.015475  -0.008333   0.003035   0.000125
    18  H   -0.045073   0.003624  -0.003404   0.003853   0.000125   0.000005
    19  C   -0.014971  -0.003399   0.001675   0.000425  -0.000165  -0.000003
    20  H   -0.008412   0.003854   0.000429   0.000015  -0.000005   0.000001
    21  C    0.003107   0.000120  -0.000167  -0.000005   0.000001  -0.000000
    22  H    0.000131   0.000005  -0.000003   0.000001  -0.000000  -0.000000
    23  C   -0.000176  -0.000003   0.000003   0.000000  -0.000000   0.000000
    24  H   -0.000005   0.000001  -0.000000  -0.000000   0.000000  -0.000000
    25  C   -0.000000  -0.000000   0.000000  -0.000000  -0.000000  -0.000000
    26  H    0.000000   0.000000  -0.000000   0.000000   0.000000   0.000000
    27  H    0.000000   0.000000  -0.000000   0.000000  -0.000000  -0.000000
    28  H    0.000000   0.000000   0.000000   0.000000   0.000000  -0.000000
    29  C    0.000001  -0.000000  -0.000000  -0.000000   0.000000  -0.000000
    30  H   -0.000000   0.000000   0.000000   0.000000  -0.000000   0.000000
    31  H   -0.000000  -0.000000  -0.000000  -0.000000  -0.000000   0.000000
    32  H   -0.000000  -0.000000   0.000000  -0.000000   0.000000   0.000000
               7          8          9         10         11         12
     1  C    0.001708   0.000428  -0.000166  -0.000003   0.000003  -0.000000
     2  H    0.000428   0.000015  -0.000005   0.000001  -0.000000  -0.000000
     3  C   -0.015479  -0.008352   0.003035   0.000125  -0.000165  -0.000005
     4  H   -0.003394   0.003845   0.000125   0.000005  -0.000003   0.000001
     5  C    0.588657  -0.052961  -0.015475  -0.003404   0.001675   0.000429
     6  H   -0.052950   0.006073  -0.008333   0.003853   0.000425   0.000015
     7  C    4.922993   0.365598   0.388492  -0.045073  -0.014971  -0.008412
     8  H    0.365598   0.598268  -0.044824   0.003624  -0.003399   0.003854
     9  C    0.388492  -0.044824   4.924067   0.365966   0.590992  -0.052885
    10  H   -0.045073   0.003624   0.365966   0.599292  -0.053380   0.006086
    11  C   -0.014971  -0.003399   0.590992  -0.053380   4.913346   0.365311
    12  H   -0.008412   0.003854  -0.052885   0.006086   0.365311   0.598532
    13  C    0.003107   0.000120  -0.016979  -0.008306   0.399658  -0.044386
    14  H    0.000131   0.000005  -0.003515   0.003951  -0.044630   0.003700
    15  C   -0.000176  -0.000003   0.001934   0.000413  -0.020297  -0.003695
    16  H   -0.000005   0.000001   0.000510   0.000014  -0.009880   0.004048
    17  C   -0.000166  -0.000005   0.000001  -0.000000  -0.000000   0.000000
    18  H   -0.000003   0.000001  -0.000000  -0.000000   0.000000  -0.000000
    19  C    0.000003  -0.000000  -0.000000   0.000000  -0.000000   0.000000
    20  H   -0.000000  -0.000000   0.000000  -0.000000   0.000000   0.000000
    21  C   -0.000000   0.000000   0.000000  -0.000000   0.000000  -0.000000
    22  H    0.000000  -0.000000  -0.000000   0.000000   0.000000   0.000000
    23  C   -0.000000   0.000000   0.000000   0.000000   0.000000   0.000000
    24  H    0.000000   0.000000  -0.000000  -0.000000   0.000000   0.000000
    25  C    0.000001  -0.000000  -0.000186  -0.000007   0.003889   0.000049
    26  H   -0.000000   0.000000   0.000002   0.000000  -0.000134   0.000002
    27  H   -0.000000  -0.000000   0.000007   0.000000  -0.000071   0.000000
    28  H   -0.000000  -0.000000   0.000007  -0.000000   0.000147   0.000005
    29  C   -0.000000  -0.000000   0.000000   0.000000   0.000000   0.000000
    30  H    0.000000   0.000000  -0.000000   0.000000   0.000000   0.000000
    31  H    0.000000   0.000000  -0.000000  -0.000000   0.000000   0.000000
    32  H    0.000000   0.000000   0.000000  -0.000000   0.000000   0.000000
              13         14         15         16         17         18
     1  C   -0.000000   0.000000  -0.000000   0.000000   0.388492  -0.045073
     2  H    0.000000  -0.000000   0.000000   0.000000  -0.044824   0.003624
     3  C    0.000001  -0.000000  -0.000000   0.000000  -0.015475  -0.003404
     4  H   -0.000000  -0.000000   0.000000  -0.000000  -0.008333   0.003853
     5  C   -0.000167  -0.000003   0.000003  -0.000000   0.003035   0.000125
     6  H   -0.000005   0.000001   0.000000  -0.000000   0.000125   0.000005
     7  C    0.003107   0.000131  -0.000176  -0.000005  -0.000166  -0.000003
     8  H    0.000120   0.000005  -0.000003   0.000001  -0.000005   0.000001
     9  C   -0.016979  -0.003515   0.001934   0.000510   0.000001  -0.000000
    10  H   -0.008306   0.003951   0.000413   0.000014  -0.000000  -0.000000
    11  C    0.399658  -0.044630  -0.020297  -0.009880  -0.000000   0.000000
    12  H   -0.044386   0.003700  -0.003695   0.004048   0.000000  -0.000000
    13  C    4.851980   0.365142   0.642372  -0.044569   0.000000  -0.000000
    14  H    0.365142   0.603934  -0.054839   0.006308  -0.000000   0.000000
    15  C    0.642372  -0.054839   4.926300   0.369248   0.000000   0.000000
    16  H   -0.044569   0.006308   0.369248   0.592454  -0.000000  -0.000000
    17  C    0.000000  -0.000000   0.000000  -0.000000   4.924067   0.365966
    18  H   -0.000000   0.000000   0.000000  -0.000000   0.365966   0.599292
    19  C    0.000000   0.000000   0.000000   0.000000   0.590992  -0.053380
    20  H   -0.000000   0.000000   0.000000   0.000000  -0.052885   0.006086
    21  C    0.000000   0.000000   0.000000   0.000000  -0.016979  -0.008306
    22  H    0.000000   0.000000   0.000000   0.000000  -0.003515   0.003951
    23  C    0.000000   0.000000   0.000000   0.000000   0.001934   0.000413
    24  H    0.000000   0.000000   0.000000   0.000000   0.000510   0.000014
    25  C   -0.027992  -0.009168   0.356718  -0.051724   0.000000   0.000000
    26  H    0.002428   0.000125  -0.027078  -0.002710  -0.000000   0.000000
    27  H   -0.005224   0.000556  -0.032112   0.002062  -0.000000  -0.000000
    28  H   -0.007082   0.004973  -0.033703   0.003947   0.000000  -0.000000
    29  C    0.000000   0.000000   0.000000   0.000000  -0.000186  -0.000007
    30  H    0.000000   0.000000   0.000000   0.000000   0.000002   0.000000
    31  H    0.000000   0.000000   0.000000   0.000000   0.000007   0.000000
    32  H    0.000000   0.000000   0.000000   0.000000   0.000007  -0.000000
              19         20         21         22         23         24
     1  C   -0.014971  -0.008412   0.003107   0.000131  -0.000176  -0.000005
     2  H   -0.003399   0.003854   0.000120   0.000005  -0.000003   0.000001
     3  C    0.001675   0.000429  -0.000167  -0.000003   0.000003  -0.000000
     4  H    0.000425   0.000015  -0.000005   0.000001   0.000000  -0.000000
     5  C   -0.000165  -0.000005   0.000001  -0.000000  -0.000000   0.000000
     6  H   -0.000003   0.000001  -0.000000  -0.000000   0.000000  -0.000000
     7  C    0.000003  -0.000000  -0.000000   0.000000  -0.000000   0.000000
     8  H   -0.000000  -0.000000   0.000000  -0.000000   0.000000   0.000000
     9  C   -0.000000   0.000000   0.000000  -0.000000   0.000000  -0.000000
    10  H    0.000000  -0.000000  -0.000000   0.000000   0.000000  -0.000000
    11  C   -0.000000   0.000000   0.000000   0.000000   0.000000   0.000000
    12  H    0.000000   0.000000  -0.000000   0.000000   0.000000   0.000000
    13  C    0.000000  -0.000000   0.000000   0.000000   0.000000   0.000000
    14  H    0.000000   0.000000   0.000000   0.000000   0.000000   0.000000
    15  C    0.000000   0.000000   0.000000   0.000000   0.000000   0.000000
    16  H    0.000000   0.000000   0.000000   0.000000   0.000000   0.000000
    17  C    0.590992  -0.052885  -0.016979  -0.003515   0.001934   0.000510
    18  H   -0.053380   0.006086  -0.008306   0.003951   0.000413   0.000014
    19  C    4.913346   0.365311   0.399658  -0.044630  -0.020297  -0.009880
    20  H    0.365311   0.598532  -0.044386   0.003700  -0.003695   0.004048
    21  C    0.399658  -0.044386   4.851980   0.365142   0.642372  -0.044569
    22  H   -0.044630   0.003700   0.365142   0.603934  -0.054839   0.006308
    23  C   -0.020297  -0.003695   0.642372  -0.054839   4.926300   0.369248
    24  H   -0.009880   0.004048  -0.044569   0.006308   0.369248   0.592454
    25  C    0.000000   0.000000   0.000000   0.000000   0.000000   0.000000
    26  H    0.000000   0.000000   0.000000   0.000000   0.000000   0.000000
    27  H    0.000000   0.000000   0.000000   0.000000   0.000000   0.000000
    28  H    0.000000   0.000000   0.000000   0.000000   0.000000   0.000000
    29  C    0.003889   0.000049  -0.027992  -0.009168   0.356718  -0.051724
    30  H   -0.000134   0.000002   0.002428   0.000125  -0.027078  -0.002710
    31  H   -0.000071   0.000000  -0.005224   0.000556  -0.032112   0.002062
    32  H    0.000147   0.000005  -0.007082   0.004973  -0.033703   0.003947
              25         26         27         28         29         30
     1  C   -0.000000   0.000000   0.000000   0.000000   0.000001  -0.000000
     2  H   -0.000000   0.000000   0.000000   0.000000  -0.000000   0.000000
     3  C    0.000000  -0.000000  -0.000000   0.000000  -0.000000   0.000000
     4  H   -0.000000   0.000000   0.000000   0.000000  -0.000000   0.000000
     5  C   -0.000000   0.000000  -0.000000   0.000000   0.000000  -0.000000
     6  H   -0.000000   0.000000  -0.000000  -0.000000  -0.000000   0.000000
     7  C    0.000001  -0.000000  -0.000000  -0.000000  -0.000000   0.000000
     8  H   -0.000000   0.000000  -0.000000  -0.000000  -0.000000   0.000000
     9  C   -0.000186   0.000002   0.000007   0.000007   0.000000  -0.000000
    10  H   -0.000007   0.000000   0.000000  -0.000000   0.000000   0.000000
    11  C    0.003889  -0.000134  -0.000071   0.000147   0.000000   0.000000
    12  H    0.000049   0.000002   0.000000   0.000005   0.000000   0.000000
    13  C   -0.027992   0.002428  -0.005224  -0.007082   0.000000   0.000000
    14  H   -0.009168   0.000125   0.000556   0.004973   0.000000   0.000000
    15  C    0.356718  -0.027078  -0.032112  -0.033703   0.000000   0.000000
    16  H   -0.051724  -0.002710   0.002062   0.003947   0.000000   0.000000
    17  C    0.000000  -0.000000  -0.000000   0.000000  -0.000186   0.000002
    18  H    0.000000   0.000000  -0.000000  -0.000000  -0.000007   0.000000
    19  C    0.000000   0.000000   0.000000   0.000000   0.003889  -0.000134
    20  H    0.000000   0.000000   0.000000   0.000000   0.000049   0.000002
    21  C    0.000000   0.000000   0.000000   0.000000  -0.027992   0.002428
    22  H    0.000000   0.000000   0.000000   0.000000  -0.009168   0.000125
    23  C    0.000000   0.000000   0.000000   0.000000   0.356718  -0.027078
    24  H    0.000000   0.000000   0.000000   0.000000  -0.051724  -0.002710
    25  C    5.088799   0.372072   0.374229   0.381323   0.000000   0.000000
    26  H    0.372072   0.561331  -0.031949  -0.028556   0.000000   0.000000
    27  H    0.374229  -0.031949   0.553497  -0.028576   0.000000   0.000000
    28  H    0.381323  -0.028556  -0.028576   0.547010   0.000000   0.000000
    29  C    0.000000   0.000000   0.000000   0.000000   5.088799   0.372072
    30  H    0.000000   0.000000   0.000000   0.000000   0.372072   0.561331
    31  H    0.000000   0.000000   0.000000   0.000000   0.374229  -0.031949
    32  H    0.000000   0.000000   0.000000   0.000000   0.381323  -0.028556
              31         32
     1  C   -0.000000  -0.000000
     2  H   -0.000000  -0.000000
     3  C   -0.000000   0.000000
     4  H   -0.000000  -0.000000
     5  C   -0.000000   0.000000
     6  H    0.000000   0.000000
     7  C    0.000000   0.000000
     8  H    0.000000   0.000000
     9  C   -0.000000   0.000000
    10  H   -0.000000  -0.000000
    11  C    0.000000   0.000000
    12  H    0.000000   0.000000
    13  C    0.000000   0.000000
    14  H    0.000000   0.000000
    15  C    0.000000   0.000000
    16  H    0.000000   0.000000
    17  C    0.000007   0.000007
    18  H    0.000000  -0.000000
    19  C   -0.000071   0.000147
    20  H    0.000000   0.000005
    21  C   -0.005224  -0.007082
    22  H    0.000556   0.004973
    23  C   -0.032112  -0.033703
    24  H    0.002062   0.003947
    25  C    0.000000   0.000000
    26  H    0.000000   0.000000
    27  H    0.000000   0.000000
    28  H    0.000000   0.000000
    29  C    0.374229   0.381323
    30  H   -0.031949  -0.028556
    31  H    0.553497  -0.028576
    32  H   -0.028576   0.547010
 Mulliken charges:
               1
     1  C   -0.130488
     2  H    0.127713
     3  C   -0.130759
     4  H    0.127639
     5  C   -0.130759
     6  H    0.127639
     7  C   -0.130488
     8  H    0.127713
     9  C   -0.132770
    10  H    0.126843
    11  C   -0.128516
    12  H    0.127350
    13  C   -0.110099
    14  H    0.123329
    15  C   -0.125085
    16  H    0.130294
    17  C   -0.132770
    18  H    0.126843
    19  C   -0.128516
    20  H    0.127350
    21  C   -0.110099
    22  H    0.123329
    23  C   -0.125085
    24  H    0.130294
    25  C   -0.488003
    26  H    0.154467
    27  H    0.167579
    28  H    0.160506
    29  C   -0.488003
    30  H    0.154467
    31  H    0.167579
    32  H    0.160506
 Sum of Mulliken charges =  -0.00000
 Mulliken charges with hydrogens summed into heavy atoms:
               1
     1  C   -0.002775
     3  C   -0.003120
     5  C   -0.003120
     7  C   -0.002775
     9  C   -0.005927
    11  C   -0.001166
    13  C    0.013230
    15  C    0.005209
    17  C   -0.005927
    19  C   -0.001166
    21  C    0.013230
    23  C    0.005209
    25  C   -0.005451
    29  C   -0.005451
 Electronic spatial extent (au):  <R**2>=          10378.1657
 Charge=             -0.0000 electrons
 Dipole moment (field-independent basis, Debye):
    X=             -0.0000    Y=             -0.0000    Z=              0.0626  Tot=              0.0626
 Quadrupole moment (field-independent basis, Debye-Ang):
   XX=            -68.3041   YY=            -76.2779   ZZ=            -92.2746
   XY=              0.0262   XZ=             -0.0000   YZ=              0.0000
 Traceless Quadrupole moment (field-independent basis, Debye-Ang):
   XX=             10.6481   YY=              2.6743   ZZ=            -13.3224
   XY=              0.0262   XZ=             -0.0000   YZ=              0.0000
 Octapole moment (field-independent basis, Debye-Ang**2):
  XXX=              0.0000  YYY=              0.0000  ZZZ=              1.1200  XYY=             -0.0000
  XXY=              0.0000  XXZ=              3.4273  XZZ=             -0.0000  YZZ=             -0.0000
  YYZ=             -0.7893  XYZ=             -0.4709
 Hexadecapole moment (field-independent basis, Debye-Ang**3):
 XXXX=         -12609.3634 YYYY=           -239.9902 ZZZZ=           -108.6191 XXXY=             49.1572
 XXXZ=             -0.0003 YYYX=              5.4140 YYYZ=              0.0000 ZZZX=             -0.0000
 ZZZY=              0.0000 XXYY=          -2213.8932 XXZZ=          -2462.9369 YYZZ=            -63.8308
 XXYZ=              0.0000 YYXZ=              0.0000 ZZXY=             -6.7736
 N-N= 6.718098580580D+02 E-N=-2.601838018240D+03  KE= 5.384268471267D+02
 No NMR shielding tensors so no spin-rotation constants.
 Leave Link  601 at Mon Jun  7 01:07:59 2021, MaxMem=    33554432 cpu:         0.2
 (Enter /opt/app/gaussian09/e01/g09/l701.exe)
 Compute integral first derivatives.
 ... and contract with generalized density number  0.
 Leave Link  701 at Mon Jun  7 01:07:59 2021, MaxMem=    33554432 cpu:         0.2
 (Enter /opt/app/gaussian09/e01/g09/l702.exe)
 L702 exits ... SP integral derivatives will be done elsewhere.
 Leave Link  702 at Mon Jun  7 01:07:59 2021, MaxMem=    33554432 cpu:         0.0
 (Enter /opt/app/gaussian09/e01/g09/l703.exe)
 Compute integral first derivatives, UseDBF=F ICtDFT=           0.
 Integral derivatives from FoFJK, PRISM(SPDF).
 Calling FoFJK, ICntrl=      2127 FMM=F ISym2X=0 I1Cent= 0 IOpClX= 0 NMat=1 NMatS=1 NMatT=0.
 FoFJK:  IHMeth= 1 ICntrl=    2127 DoSepK=F KAlg= 0 I1Cent=   0 FoldK=F
 IRaf=         0 NMat=   1 IRICut=       1 DoRegI=T DoRafI=F ISym2E= 0.
 FoFCou: FMM=F IPFlag=           0 FMFlag=      100000 FMFlg1=         800
         NFxFlg=           0 DoJE=F BraDBF=F KetDBF=F FulRan=T
         wScrn=  0.000000 ICntrl=    2127 IOpCl=  0 I1Cent=           0 NGrid=           0
         NMat0=    1 NMatS0=      1 NMatT0=    0 NMatD0=    1 NMtDS0=    0 NMtDT0=    0
 Symmetry not used in FoFCou.
 Leave Link  703 at Mon Jun  7 01:08:41 2021, MaxMem=    33554432 cpu:        42.2
 (Enter /opt/app/gaussian09/e01/g09/l716.exe)
 Dipole        =-2.57577403D-08-1.08390123D-08 2.46232958D-02
 ***** Axes restored to original set *****
 -------------------------------------------------------------------
 Center     Atomic                   Forces (Hartrees/Bohr)
 Number     Number              X              Y              Z
 -------------------------------------------------------------------
      1        6           0.059220578   -0.030608593   -0.005805694
      2        1          -0.011923611   -0.005137015    0.000764229
      3        6          -0.059364929    0.030964840    0.005859435
      4        1           0.011910768    0.005155932   -0.000764477
      5        6           0.059363963   -0.030964408   -0.005871598
      6        1          -0.011910807   -0.005155917    0.000764101
      7        6          -0.059214900    0.030606026    0.005876683
      8        1           0.011923315    0.005137145   -0.000767837
      9        6           0.059868976   -0.029581269   -0.005825643
     10        1          -0.011938997   -0.005192140    0.000752608
     11        6          -0.058899889    0.027465740    0.005187315
     12        1           0.011904620    0.005148496   -0.000769114
     13        6           0.064747637   -0.022221358   -0.005548632
     14        1          -0.012306444   -0.005232412    0.001358824
     15        6          -0.041717437    0.000557146    0.004549062
     16        1           0.012405097    0.002180427   -0.001881023
     17        6          -0.059864167    0.029579084    0.005885945
     18        1           0.011936997    0.005193051   -0.000777760
     19        6           0.058818354   -0.027428703   -0.006208000
     20        1          -0.011905417   -0.005148133    0.000759145
     21        6          -0.064679500    0.022190416    0.006401469
     22        1           0.012396117    0.005191664   -0.000236104
     23        6           0.041907136   -0.000643326   -0.002174417
     24        1          -0.012558768   -0.002110614   -0.000042653
     25        6           0.025990506   -0.030886774   -0.001000212
     26        1           0.007056083    0.015113350    0.007107792
     27        1          -0.004923197    0.010101891   -0.015910424
     28        1          -0.014880787   -0.000035604    0.007789222
     29        6          -0.025642210    0.030728536    0.005360379
     30        1          -0.005926800   -0.015626410    0.007029290
     31        1           0.002280267   -0.008901150   -0.017175475
     32        1           0.015927443   -0.000439916    0.005313565
 -------------------------------------------------------------------
 Cartesian Forces:  Max     0.064747637 RMS     0.024090814
 Leave Link  716 at Mon Jun  7 01:08:41 2021, MaxMem=    33554432 cpu:         0.0
 (Enter /opt/app/gaussian09/e01/g09/l103.exe)

 GradGradGradGradGradGradGradGradGradGradGradGradGradGradGradGradGradGrad
 Berny optimization.
 FormGI is forming the generalized inverse of G from B-inverse, IUseBI=4.
 GSVD:  received Info=                   1 from GESDD.
 Internal  Forces:  Max     0.047407723 RMS     0.011679811
 Search for a local minimum.
 Step number   1 out of a maximum of  145
 All quantities printed in internal units (Hartrees-Bohrs-Radians)
 RMS Force = .11680D-01 SwitMx=.10000D-02 MixMth= 1
 Mixed Optimization -- RFO/linear search
 Second derivative matrix not updated -- first step.
 ITU=  0
     Eigenvalues ---    0.00237   0.00237   0.00237   0.00237   0.00237
     Eigenvalues ---    0.00237   0.00237   0.01215   0.01215   0.01459
     Eigenvalues ---    0.01459   0.01459   0.01459   0.01459   0.01459
     Eigenvalues ---    0.01459   0.01459   0.01459   0.01459   0.02681
     Eigenvalues ---    0.02681   0.02681   0.02681   0.02681   0.02681
     Eigenvalues ---    0.07243   0.07243   0.07243   0.07243   0.16000
     Eigenvalues ---    0.16000   0.16000   0.16000   0.16000   0.16000
     Eigenvalues ---    0.16000   0.16000   0.16000   0.16000   0.16000
     Eigenvalues ---    0.16000   0.16000   0.16000   0.16000   0.16000
     Eigenvalues ---    0.16000   0.16000   0.22000   0.22000   0.22000
     Eigenvalues ---    0.22000   0.22000   0.22000   0.22000   0.22000
     Eigenvalues ---    0.22000   0.22000   0.22000   0.22000   0.28519
     Eigenvalues ---    0.28519   0.28519   0.28519   0.28519   0.28519
     Eigenvalues ---    0.28519   0.37230   0.37230   0.37230   0.37230
     Eigenvalues ---    0.37230   0.37230   0.37230   0.37230   0.37230
     Eigenvalues ---    0.37230   0.37230   0.37230   0.37230   0.37230
     Eigenvalues ---    0.37230   0.37230   0.37230   0.37230   0.53930
     Eigenvalues ---    0.53930   0.53930   0.53930   0.53930   0.53930
 RFO step:  Lambda=-5.49797080D-02 EMin= 2.36823976D-03
 Linear search not attempted -- first point.
 Maximum step size (   0.300) exceeded in Quadratic search.
    -- Step size scaled by   0.730
 Iteration  1 RMS(Cart)=  0.04818897 RMS(Int)=  0.00032954
 Iteration  2 RMS(Cart)=  0.00131585 RMS(Int)=  0.00002477
 Iteration  3 RMS(Cart)=  0.00000008 RMS(Int)=  0.00002477
 ITry= 1 IFail=0 DXMaxC= 1.87D-01 DCOld= 1.00D+10 DXMaxT= 3.00D-01 DXLimC= 3.00D+00 Rises=F
 Variable       Old X    -DE/DX   Delta X   Delta X   Delta X     New X
                                 (Linear)    (Quad)   (Total)
    R1        2.02201   0.01195   0.00000   0.02042   0.02042   2.04243
    R2        2.56096  -0.00227   0.00000  -0.00279  -0.00279   2.55817
    R3        2.91018  -0.04700   0.00000  -0.10091  -0.10091   2.80926
    R4        2.02201   0.01194   0.00000   0.02040   0.02040   2.04241
    R5        2.91018  -0.04741   0.00000  -0.10179  -0.10179   2.80839
    R6        2.02201   0.01194   0.00000   0.02040   0.02040   2.04241
    R7        2.56096  -0.00227   0.00000  -0.00279  -0.00279   2.55817
    R8        2.02201   0.01195   0.00000   0.02042   0.02042   2.04243
    R9        2.91018  -0.04700   0.00000  -0.10091  -0.10091   2.80926
   R10        2.02201   0.01196   0.00000   0.02045   0.02045   2.04245
   R11        2.56096  -0.00343   0.00000  -0.00422  -0.00422   2.55674
   R12        2.02201   0.01193   0.00000   0.02039   0.02039   2.04240
   R13        2.91018  -0.04462   0.00000  -0.09581  -0.09581   2.81437
   R14        2.02201   0.01238   0.00000   0.02116   0.02116   2.04316
   R15        2.56096  -0.01062   0.00000  -0.01305  -0.01305   2.54790
   R16        2.02201   0.01252   0.00000   0.02139   0.02139   2.04340
   R17        2.91018  -0.01165   0.00000  -0.02502  -0.02502   2.88516
   R18        2.02201   0.01196   0.00000   0.02045   0.02045   2.04245
   R19        2.56096  -0.00343   0.00000  -0.00422  -0.00422   2.55674
   R20        2.02201   0.01193   0.00000   0.02039   0.02039   2.04240
   R21        2.91018  -0.04462   0.00000  -0.09581  -0.09581   2.81437
   R22        2.02201   0.01238   0.00000   0.02116   0.02116   2.04316
   R23        2.56096  -0.01062   0.00000  -0.01305  -0.01305   2.54790
   R24        2.02201   0.01252   0.00000   0.02139   0.02139   2.04340
   R25        2.91018  -0.01165   0.00000  -0.02502  -0.02502   2.88516
   R26        2.02201   0.01756   0.00000   0.03002   0.03002   2.05202
   R27        2.02201   0.01901   0.00000   0.03249   0.03249   2.05450
   R28        2.02201   0.01658   0.00000   0.02834   0.02834   2.05035
   R29        2.02201   0.01756   0.00000   0.03002   0.03002   2.05202
   R30        2.02201   0.01901   0.00000   0.03249   0.03249   2.05450
   R31        2.02201   0.01658   0.00000   0.02834   0.02834   2.05035
    A1        2.09440  -0.00095   0.00000   0.00132   0.00132   2.09572
    A2        2.09440  -0.01134   0.00000  -0.03397  -0.03397   2.06043
    A3        2.09440   0.01229   0.00000   0.03264   0.03264   2.12704
    A4        2.09440  -0.00087   0.00000   0.00154   0.00154   2.09594
    A5        2.09440   0.01217   0.00000   0.03233   0.03233   2.12673
    A6        2.09440  -0.01130   0.00000  -0.03388  -0.03388   2.06052
    A7        2.09440  -0.01130   0.00000  -0.03388  -0.03388   2.06052
    A8        2.09440   0.01217   0.00000   0.03233   0.03233   2.12673
    A9        2.09440  -0.00087   0.00000   0.00154   0.00154   2.09594
   A10        2.09440  -0.00095   0.00000   0.00132   0.00132   2.09572
   A11        2.09440   0.01229   0.00000   0.03264   0.03264   2.12704
   A12        2.09440  -0.01134   0.00000  -0.03397  -0.03397   2.06043
   A13        2.09440  -0.01132   0.00000  -0.03396  -0.03396   2.06043
   A14        2.09440   0.01214   0.00000   0.03225   0.03225   2.12664
   A15        2.09440  -0.00082   0.00000   0.00171   0.00171   2.09611
[...]
 Alpha virt. eigenvalues --    1.60198   1.65671   1.70533   1.74018   1.77003
 Alpha virt. eigenvalues --    1.77321   1.82644   1.83615   1.84332   1.87273
 Alpha virt. eigenvalues --    1.88378   1.88599   1.90857   1.91053   1.91973
 Alpha virt. eigenvalues --    1.92497   1.95812   1.97270   1.99247   2.00263
 Alpha virt. eigenvalues --    2.02436   2.02664   2.10333   2.11455   2.14040
 Alpha virt. eigenvalues --    2.15283   2.16067   2.18748   2.20547   2.23282
 Alpha virt. eigenvalues --    2.26636   2.28161   2.29576   2.29758   2.32287
 Alpha virt. eigenvalues --    2.35226   2.35577   2.35847   2.38345   2.39899
 Alpha virt. eigenvalues --    2.43656   2.45438   2.47250   2.48740   2.49594
 Alpha virt. eigenvalues --    2.51778   2.51918   2.58023   2.62994   2.79760
 Alpha virt. eigenvalues --    2.81662   2.88643   2.89849   2.93396   2.93827
 Alpha virt. eigenvalues --    2.94705   2.97433   3.05331   3.06041   3.12595
 Alpha virt. eigenvalues --    3.12765   4.09498   4.09814   4.10588   4.11828
 Alpha virt. eigenvalues --    4.13735   4.16263   4.18672   4.25914   4.29989
 Alpha virt. eigenvalues --    4.34227   4.39471   4.45640   4.51677   4.56189
          Condensed to atoms (all electrons):
               1          2          3          4          5          6
     1  C    4.913625   0.363658   0.560458  -0.055699  -0.008738  -0.006207
     2  H    0.363658   0.616185  -0.055550   0.006147  -0.007747   0.005169
     3  C    0.560458  -0.055550   4.908559   0.363886   0.426324  -0.053898
     4  H   -0.055699   0.006147   0.363886   0.616235  -0.053898   0.005467
     5  C   -0.008738  -0.007747   0.426324  -0.053898   4.908559   0.363886
     6  H   -0.006207   0.005169  -0.053898   0.005467   0.363886   0.616235
     7  C    0.002558   0.000396  -0.008738  -0.006207   0.560458  -0.055699
     8  H    0.000396   0.000013  -0.007747   0.005169  -0.055550   0.006147
     9  C   -0.000227  -0.000002   0.003297   0.000281  -0.008554  -0.007711
    10  H   -0.000002   0.000001   0.000285   0.000009  -0.006196   0.005168
    11  C    0.000003  -0.000000  -0.000229  -0.000002   0.002500   0.000397
    12  H   -0.000000  -0.000000  -0.000002   0.000001   0.000395   0.000013
    13  C   -0.000000   0.000000   0.000002  -0.000000  -0.000221  -0.000002
    14  H    0.000000  -0.000000  -0.000000  -0.000000  -0.000002   0.000001
    15  C   -0.000000   0.000000  -0.000000   0.000000   0.000003  -0.000000
    16  H    0.000000   0.000000   0.000000  -0.000000  -0.000000  -0.000000
    17  C    0.421621  -0.053811  -0.008554  -0.007711   0.003297   0.000281
    18  H   -0.054018   0.005459  -0.006196   0.005168   0.000285   0.000009
    19  C   -0.008228  -0.006160   0.002500   0.000397  -0.000229  -0.000002
    20  H   -0.007943   0.005185   0.000395   0.000013  -0.000002   0.000001
    21  C    0.003314   0.000259  -0.000221  -0.000002   0.000002  -0.000000
    22  H    0.000287   0.000009  -0.000002   0.000001  -0.000000  -0.000000
    23  C   -0.000243  -0.000001   0.000003  -0.000000  -0.000000   0.000000
    24  H   -0.000000   0.000001  -0.000000  -0.000000   0.000000  -0.000000
    25  C   -0.000000  -0.000000   0.000000   0.000000  -0.000000   0.000000
    26  H    0.000000   0.000000  -0.000000  -0.000000  -0.000000   0.000000
    27  H    0.000000   0.000000  -0.000000  -0.000000  -0.000000   0.000000
    28  H   -0.000000   0.000000   0.000000   0.000000   0.000000  -0.000000
    29  C    0.000002  -0.000000  -0.000000   0.000000   0.000000   0.000000
    30  H   -0.000000   0.000000  -0.000000   0.000000  -0.000000  -0.000000
    31  H   -0.000000   0.000000  -0.000000   0.000000  -0.000000  -0.000000
    32  H    0.000000  -0.000000   0.000000  -0.000000   0.000000   0.000000
               7          8          9         10         11         12
     1  C    0.002558   0.000396  -0.000227  -0.000002   0.000003  -0.000000
     2  H    0.000396   0.000013  -0.000002   0.000001  -0.000000  -0.000000
     3  C   -0.008738  -0.007747   0.003297   0.000285  -0.000229  -0.000002
     4  H   -0.006207   0.005169   0.000281   0.000009  -0.000002   0.000001
     5  C    0.560458  -0.055550  -0.008554  -0.006196   0.002500   0.000395
     6  H   -0.055699   0.006147  -0.007711   0.005168   0.000397   0.000013
     7  C    4.913625   0.363658   0.421621  -0.054018  -0.008228  -0.007943
     8  H    0.363658   0.616185  -0.053811   0.005459  -0.006160   0.005185
     9  C    0.421621  -0.053811   4.908061   0.364263   0.566260  -0.055076
    10  H   -0.054018   0.005459   0.364263   0.616930  -0.056403   0.006191
    11  C   -0.008228  -0.006160   0.566260  -0.056403   4.911554   0.362967
    12  H   -0.007943   0.005185  -0.055076   0.006191   0.362967   0.616265
    13  C    0.003314   0.000259  -0.009778  -0.007658   0.428780  -0.053528
    14  H    0.000287   0.000009  -0.006328   0.005239  -0.053315   0.005445
    15  C   -0.000243  -0.000001   0.002933   0.000403  -0.017791  -0.006193
    16  H   -0.000000   0.000001   0.000460   0.000014  -0.010393   0.005713
    17  C   -0.000227  -0.000002   0.000002  -0.000000  -0.000000   0.000000
    18  H   -0.000002   0.000001  -0.000000  -0.000000   0.000000  -0.000000
    19  C    0.000003  -0.000000  -0.000000   0.000000  -0.000000   0.000000
    20  H   -0.000000  -0.000000   0.000000  -0.000000   0.000000   0.000000
    21  C   -0.000000   0.000000  -0.000000  -0.000000   0.000000  -0.000000
    22  H    0.000000  -0.000000  -0.000000   0.000000  -0.000000   0.000000
    23  C   -0.000000   0.000000   0.000000  -0.000000   0.000000   0.000000
    24  H    0.000000   0.000000  -0.000000   0.000000   0.000000  -0.000000
    25  C    0.000002  -0.000000  -0.000218  -0.000005   0.004223   0.000102
    26  H   -0.000000   0.000000   0.000004   0.000000  -0.000105  -0.000000
    27  H   -0.000000   0.000000   0.000004   0.000000  -0.000105  -0.000000
    28  H    0.000000  -0.000000   0.000006   0.000000   0.000193   0.000012
    29  C   -0.000000  -0.000000   0.000000   0.000000   0.000000   0.000000
    30  H    0.000000   0.000000  -0.000000  -0.000000   0.000000   0.000000
    31  H    0.000000   0.000000  -0.000000  -0.000000   0.000000   0.000000
    32  H   -0.000000   0.000000   0.000000  -0.000000   0.000000   0.000000
              13         14         15         16         17         18
     1  C   -0.000000   0.000000  -0.000000   0.000000   0.421621  -0.054018
     2  H    0.000000  -0.000000   0.000000   0.000000  -0.053811   0.005459
     3  C    0.000002  -0.000000  -0.000000   0.000000  -0.008554  -0.006196
     4  H   -0.000000  -0.000000   0.000000  -0.000000  -0.007711   0.005168
     5  C   -0.000221  -0.000002   0.000003  -0.000000   0.003297   0.000285
     6  H   -0.000002   0.000001  -0.000000  -0.000000   0.000281   0.000009
     7  C    0.003314   0.000287  -0.000243  -0.000000  -0.000227  -0.000002
     8  H    0.000259   0.000009  -0.000001   0.000001  -0.000002   0.000001
     9  C   -0.009778  -0.006328   0.002933   0.000460   0.000002  -0.000000
    10  H   -0.007658   0.005239   0.000403   0.000014  -0.000000  -0.000000
    11  C    0.428780  -0.053315  -0.017791  -0.010393  -0.000000   0.000000
    12  H   -0.053528   0.005445  -0.006193   0.005713   0.000000  -0.000000
    13  C    4.808587   0.361477   0.640397  -0.046669  -0.000000  -0.000000
    14  H    0.361477   0.620204  -0.053927   0.006607  -0.000000   0.000000
    15  C    0.640397  -0.053927   4.909492   0.364877   0.000000  -0.000000
    16  H   -0.046669   0.006607   0.364877   0.608631  -0.000000   0.000000
    17  C   -0.000000  -0.000000   0.000000  -0.000000   4.908061   0.364263
    18  H   -0.000000   0.000000  -0.000000   0.000000   0.364263   0.616930
    19  C    0.000000  -0.000000   0.000000   0.000000   0.566260  -0.056403
    20  H   -0.000000   0.000000   0.000000  -0.000000  -0.055076   0.006191
    21  C    0.000000   0.000000   0.000000   0.000000  -0.009778  -0.007658
    22  H    0.000000   0.000000  -0.000000   0.000000  -0.006328   0.005239
    23  C    0.000000  -0.000000   0.000000   0.000000   0.002933   0.000403
    24  H    0.000000   0.000000   0.000000   0.000000   0.000460   0.000014
    25  C   -0.017770  -0.009786   0.363660  -0.056849   0.000000   0.000000
    26  H   -0.000947   0.000117  -0.030760  -0.000711  -0.000000  -0.000000
    27  H   -0.000947   0.000117  -0.030760  -0.000712  -0.000000  -0.000000
    28  H   -0.005528   0.006593  -0.035934   0.004624   0.000000  -0.000000
    29  C    0.000000   0.000000   0.000000   0.000000  -0.000218  -0.000005
    30  H    0.000000   0.000000   0.000000   0.000000   0.000004   0.000000
    31  H    0.000000   0.000000   0.000000   0.000000   0.000004   0.000000
    32  H    0.000000   0.000000   0.000000   0.000000   0.000006   0.000000
              19         20         21         22         23         24
     1  C   -0.008228  -0.007943   0.003314   0.000287  -0.000243  -0.000000
     2  H   -0.006160   0.005185   0.000259   0.000009  -0.000001   0.000001
     3  C    0.002500   0.000395  -0.000221  -0.000002   0.000003  -0.000000
     4  H    0.000397   0.000013  -0.000002   0.000001  -0.000000  -0.000000
     5  C   -0.000229  -0.000002   0.000002  -0.000000  -0.000000   0.000000
     6  H   -0.000002   0.000001  -0.000000  -0.000000   0.000000  -0.000000
     7  C    0.000003  -0.000000  -0.000000   0.000000  -0.000000   0.000000
     8  H   -0.000000  -0.000000   0.000000  -0.000000   0.000000   0.000000
     9  C   -0.000000   0.000000  -0.000000  -0.000000   0.000000  -0.000000
    10  H    0.000000  -0.000000  -0.000000   0.000000  -0.000000   0.000000
    11  C   -0.000000   0.000000   0.000000  -0.000000   0.000000   0.000000
    12  H    0.000000   0.000000  -0.000000   0.000000   0.000000  -0.000000
    13  C    0.000000  -0.000000   0.000000   0.000000   0.000000   0.000000
    14  H   -0.000000   0.000000   0.000000   0.000000  -0.000000   0.000000
    15  C    0.000000   0.000000   0.000000  -0.000000   0.000000   0.000000
    16  H    0.000000  -0.000000   0.000000   0.000000   0.000000   0.000000
    17  C    0.566260  -0.055076  -0.009778  -0.006328   0.002933   0.000460
    18  H   -0.056403   0.006191  -0.007658   0.005239   0.000403   0.000014
    19  C    4.911554   0.362967   0.428780  -0.053315  -0.017791  -0.010393
    20  H    0.362967   0.616265  -0.053528   0.005445  -0.006193   0.005713
    21  C    0.428780  -0.053528   4.808587   0.361477   0.640397  -0.046669
    22  H   -0.053315   0.005445   0.361477   0.620204  -0.053927   0.006607
    23  C   -0.017791  -0.006193   0.640397  -0.053927   4.909492   0.364877
    24  H   -0.010393   0.005713  -0.046669   0.006607   0.364877   0.608631
    25  C    0.000000   0.000000   0.000000   0.000000   0.000000   0.000000
    26  H    0.000000   0.000000   0.000000   0.000000   0.000000   0.000000
    27  H    0.000000   0.000000   0.000000   0.000000   0.000000   0.000000
    28  H    0.000000   0.000000   0.000000   0.000000   0.000000   0.000000
    29  C    0.004223   0.000102  -0.017770  -0.009786   0.363660  -0.056849
    30  H   -0.000105  -0.000000  -0.000947   0.000117  -0.030760  -0.000711
    31  H   -0.000105  -0.000000  -0.000947   0.000117  -0.030760  -0.000712
    32  H    0.000193   0.000012  -0.005528   0.006593  -0.035934   0.004624
              25         26         27         28         29         30
     1  C   -0.000000   0.000000   0.000000  -0.000000   0.000002  -0.000000
     2  H   -0.000000   0.000000   0.000000   0.000000  -0.000000   0.000000
     3  C    0.000000  -0.000000  -0.000000   0.000000  -0.000000  -0.000000
     4  H    0.000000  -0.000000  -0.000000   0.000000   0.000000   0.000000
     5  C   -0.000000  -0.000000  -0.000000   0.000000   0.000000  -0.000000
     6  H    0.000000   0.000000   0.000000  -0.000000   0.000000  -0.000000
     7  C    0.000002  -0.000000  -0.000000   0.000000  -0.000000   0.000000
     8  H   -0.000000   0.000000   0.000000  -0.000000  -0.000000   0.000000
     9  C   -0.000218   0.000004   0.000004   0.000006   0.000000  -0.000000
    10  H   -0.000005   0.000000   0.000000   0.000000   0.000000  -0.000000
    11  C    0.004223  -0.000105  -0.000105   0.000193   0.000000   0.000000
    12  H    0.000102  -0.000000  -0.000000   0.000012   0.000000   0.000000
    13  C   -0.017770  -0.000947  -0.000947  -0.005528   0.000000   0.000000
    14  H   -0.009786   0.000117   0.000117   0.006593   0.000000   0.000000
    15  C    0.363660  -0.030760  -0.030760  -0.035934   0.000000   0.000000
    16  H   -0.056849  -0.000711  -0.000712   0.004624   0.000000   0.000000
    17  C    0.000000  -0.000000  -0.000000   0.000000  -0.000218   0.000004
    18  H    0.000000  -0.000000  -0.000000  -0.000000  -0.000005   0.000000
    19  C    0.000000   0.000000   0.000000   0.000000   0.004223  -0.000105
    20  H    0.000000   0.000000   0.000000   0.000000   0.000102  -0.000000
    21  C    0.000000   0.000000   0.000000   0.000000  -0.017770  -0.000947
    22  H    0.000000   0.000000   0.000000   0.000000  -0.009786   0.000117
    23  C    0.000000   0.000000   0.000000   0.000000   0.363660  -0.030760
    24  H    0.000000   0.000000   0.000000   0.000000  -0.056849  -0.000711
    25  C    5.099537   0.366864   0.366863   0.373999   0.000000   0.000000
    26  H    0.366864   0.572264  -0.037014  -0.028106   0.000000   0.000000
    27  H    0.366863  -0.037014   0.572266  -0.028106   0.000000   0.000000
    28  H    0.373999  -0.028106  -0.028106   0.557642   0.000000   0.000000
    29  C    0.000000   0.000000   0.000000   0.000000   5.099537   0.366864
    30  H    0.000000   0.000000   0.000000   0.000000   0.366864   0.572264
    31  H    0.000000   0.000000   0.000000   0.000000   0.366863  -0.037014
    32  H    0.000000   0.000000   0.000000   0.000000   0.373999  -0.028106
              31         32
     1  C   -0.000000   0.000000
     2  H    0.000000  -0.000000
     3  C   -0.000000   0.000000
     4  H    0.000000  -0.000000
     5  C   -0.000000   0.000000
     6  H   -0.000000   0.000000
     7  C    0.000000  -0.000000
     8  H    0.000000   0.000000
     9  C   -0.000000   0.000000
    10  H   -0.000000  -0.000000
    11  C    0.000000   0.000000
    12  H    0.000000   0.000000
    13  C    0.000000   0.000000
    14  H    0.000000   0.000000
    15  C    0.000000   0.000000
    16  H    0.000000   0.000000
    17  C    0.000004   0.000006
    18  H    0.000000   0.000000
    19  C   -0.000105   0.000193
    20  H   -0.000000   0.000012
    21  C   -0.000947  -0.005528
    22  H    0.000117   0.006593
    23  C   -0.030760  -0.035934
    24  H   -0.000712   0.004624
    25  C    0.000000   0.000000
    26  H    0.000000   0.000000
    27  H    0.000000   0.000000
    28  H    0.000000   0.000000
    29  C    0.366863   0.373999
    30  H   -0.037014  -0.028106
    31  H    0.572266  -0.028106
    32  H   -0.028106   0.557642
 Mulliken charges:
               1
     1  C   -0.124616
     2  H    0.120788
     3  C   -0.124573
     4  H    0.120742
     5  C   -0.124573
     6  H    0.120742
     7  C   -0.124616
     8  H    0.120788
     9  C   -0.125487
    10  H    0.120319
    11  C   -0.124145
    12  H    0.120453
    13  C   -0.099768
    14  H    0.117262
    15  C   -0.106155
    16  H    0.124407
    17  C   -0.125487
    18  H    0.120319
    19  C   -0.124145
    20  H    0.120453
    21  C   -0.099768
    22  H    0.117262
    23  C   -0.106155
    24  H    0.124407
    25  C   -0.490622
    26  H    0.158395
    27  H    0.158394
    28  H    0.154607
    29  C   -0.490622
    30  H    0.158395
    31  H    0.158394
    32  H    0.154607
 Sum of Mulliken charges =  -0.00000
 Mulliken charges with hydrogens summed into heavy atoms:
               1
     1  C   -0.003828
     3  C   -0.003832
     5  C   -0.003832
     7  C   -0.003828
     9  C   -0.005169
    11  C   -0.003692
    13  C    0.017493
    15  C    0.018252
    17  C   -0.005169
    19  C   -0.003692
    21  C    0.017493
    23  C    0.018252
    25  C   -0.019225
    29  C   -0.019225
 Electronic spatial extent (au):  <R**2>=          10161.7380
 Charge=             -0.0000 electrons
 Dipole moment (field-independent basis, Debye):
    X=              0.0000    Y=              0.0000    Z=              0.0003  Tot=              0.0003
 Quadrupole moment (field-independent basis, Debye-Ang):
   XX=            -65.0185   YY=            -78.1462   ZZ=            -91.9956
   XY=              1.0364   XZ=              0.0000   YZ=              0.0000
 Traceless Quadrupole moment (field-independent basis, Debye-Ang):
   XX=             13.3683   YY=              0.2406   ZZ=            -13.6089
   XY=              1.0364   XZ=              0.0000   YZ=              0.0000
 Octapole moment (field-independent basis, Debye-Ang**2):
  XXX=              0.0000  YYY=             -0.0000  ZZZ=              0.0050  XYY=             -0.0000
  XXY=              0.0000  XXZ=              0.0317  XZZ=              0.0000  YZZ=              0.0000
  YYZ=             -0.0010  XYZ=              0.0188
 Hexadecapole moment (field-independent basis, Debye-Ang**3):
 XXXX=         -12005.0259 YYYY=           -237.1146 ZZZZ=           -108.6777 XXXY=             87.2183
 XXXZ=              0.0000 YYYX=             -0.2074 YYYZ=              0.0000 ZZZX=              0.0000
 ZZZY=              0.0000 XXYY=          -2211.8266 XXZZ=          -2412.2069 YYZZ=            -63.7568
 XXYZ=              0.0000 YYXZ=             -0.0000 ZZXY=              2.1308
 N-N= 6.804227009079D+02 E-N=-2.619121589607D+03  KE= 5.387763361191D+02
 No NMR shielding tensors so no spin-rotation constants.
 Leave Link  601 at Mon Jun  7 01:44:14 2021, MaxMem=    33554432 cpu:         0.2
 (Enter /opt/app/gaussian09/e01/g09/l9999.exe)
 1\1\GINC-NB-0235\FOpt\RB3LYP\6-31G(d)\C14H18\ROOT\07-Jun-2021\0\\#p op
 t b3lyp/6-31g(d) geom=connectivity int=ultrafine\\Title Card Required\
 \0,1\C,-2.4976410159,-2.8391169997,0.1413634649\H,-3.5846896848,-2.878
 0669293,0.2266734022\C,-1.8881755857,-1.6212468477,0.1369911937\H,-0.8
 010918806,-1.5825645059,0.0516713303\C,-2.5767066205,-0.3671191829,0.2
 375046796\H,-3.6637724059,-0.405809666,0.3230488753\C,-1.9672593387,0.
 850759214,0.2329052147\H,-0.8802281693,0.8897170941,0.1473762062\C,-2.
 6566831479,2.1065484276,0.3335736438\H,-3.7437525028,2.0665607403,0.41
 93562217\C,-2.0488024212,3.3216008344,0.3286251482\H,-0.9619129101,3.3
 63242797,0.2428790681\C,-2.7431060772,4.5843993944,0.4298999852\H,-3.8
 303535819,4.5391624319,0.5155378464\C,-2.1411013665,5.7901102529,0.425
 0744228\H,-1.0538621464,5.8288197948,0.3392018962\C,-1.8082135276,-4.0
 949078847,0.0407410936\H,-0.721081087,-4.0549488582,-0.0442517352\C,-2
 .4161712564,-5.3099253087,0.0447256278\H,-3.5031298529,-5.3515358848,0
 .1296068496\C,-1.7218698951,-6.572722826,-0.0565779378\H,-0.6345543092
 ,-6.5275167934,-0.1413635124\C,-2.323952788,-7.7783981655,-0.052731115
 7\H,-3.4112598487,-7.8170768867,0.0322921365\C,-2.8473190498,7.1072206
 32,0.5292813007\H,-2.505334123,7.675933062,1.4055522842\H,-2.645989017
 8,7.7391891002,-0.3472591308\H,-3.931811533,6.9783254625,0.6116537724\
 C,-1.6177359323,-9.0955081682,-0.1569483586\H,-1.8197370937,-9.7278168
 659,0.7191906686\H,-1.9591199101,-9.6638484848,-1.0336965094\H,-0.5331
 7684,-8.9666432596,-0.2384869726\\Version=ES64L-G09RevE.01\State=1-A\H
 F=-544.2610719\RMSD=6.839e-09\RMSF=1.284e-06\Dipole=-0.0000086,0.00000
 39,-0.0001076\Quadrupole=0.0637234,9.9647204,-10.0284439,0.3452017,-0.
 8007834,0.7012378\PG=C01 [X(C14H18)]\\@


 IN THE WOODS WE RETURN TO REASON AND FAITH.

                                 -- EMERSON
 Job cpu time:       0 days  0 hours 39 minutes 43.8 seconds.
 File lengths (MBytes):  RWF=     40 Int=      0 D2E=      0 Chk=      6 Scr=      1
 Normal termination of Gaussian 09 at Mon Jun  7 01:44:14 2021.
