Title Card Required                                                     
SP        RB3LYP TD-FC                                                6-31G(d)            
Number of atoms                            I               32
Info1-9                                    I   N=           9
          72          72           0           0           0         110
           1         218        -501
Charge                                     I                0
Multiplicity                               I                1
Number of electrons                        I              102
Number of alpha electrons                  I               51
Number of beta electrons                   I               51
Number of basis functions                  I              246
Number of independent functions            I              246
Number of point charges in /Mol/           I                0
Number of translation vectors              I                0
Atomic numbers                             I   N=          32
           6           1           6           1           6           1
           6           1           6           1           6           1
           6           1           6           1           6           1
           6           1           6           1           6           1
           6           1           1           1           6           1
           1           1
Nuclear charges                            R   N=          32
  6.00000000E+00  1.00000000E+00  6.00000000E+00  1.00000000E+00  6.00000000E+00
  1.00000000E+00  6.00000000E+00  1.00000000E+00  6.00000000E+00  1.00000000E+00
  6.00000000E+00  1.00000000E+00  6.00000000E+00  1.00000000E+00  6.00000000E+00
  1.00000000E+00  6.00000000E+00  1.00000000E+00  6.00000000E+00  1.00000000E+00
  6.00000000E+00  1.00000000E+00  6.00000000E+00  1.00000000E+00  6.00000000E+00
  1.00000000E+00  1.00000000E+00  1.00000000E+00  6.00000000E+00  1.00000000E+00
  1.00000000E+00  1.00000000E+00
Current cartesian coordinates              R   N=          96
  7.87602426E-01 -3.43416416E+00 -7.83536961E-04  2.84693945E+00 -3.33230088E+00
 -5.75270244E-04 -5.52833857E-01 -1.23725815E+00 -9.99457069E-04 -2.61219512E+00
 -1.33963114E+00 -1.21259928E-03  5.52833857E-01  1.23725815E+00 -9.99457069E-04
  2.61219512E+00  1.33963114E+00 -1.21259928E-03 -7.87602426E-01  3.43416416E+00
 -7.83536961E-04 -2.84693945E+00  3.33230088E+00 -5.75270244E-04  3.19496809E-01
  5.91195761E+00 -8.28040012E-04  2.37910747E+00  6.01190950E+00 -1.57729753E-03
 -1.01759490E+00  8.10376043E+00  8.65685394E-05 -3.07712838E+00  8.00695209E+00
  9.07182113E-04  9.76271314E-02  1.05955473E+01  1.13912877E-04  2.15839455E+00
  1.06856378E+01 -6.94757627E-04 -1.22691496E+00  1.27706922E+01  1.04250540E-03
 -3.28665219E+00  1.26683017E+01  1.84824683E-03 -3.19496809E-01 -5.91195761E+00
 -8.28040012E-04 -2.37910747E+00 -6.01190950E+00 -1.57729753E-03  1.01759490E+00
 -8.10376043E+00  8.65685394E-05  3.07712838E+00 -8.00695209E+00  9.07182113E-04
 -9.76271314E-02 -1.05955473E+01  1.13912877E-04 -2.15839455E+00 -1.06856378E+01
 -6.94757627E-04  1.22691496E+00 -1.27706922E+01  1.04250540E-03  3.28665219E+00
 -1.26683017E+01  1.84824683E-03 -9.76271314E-02  1.53667555E+01  1.05229418E-03
 -7.04703464E-01  1.64546063E+01 -1.66109607E+00 -7.03446314E-01  1.64540375E+01
  1.66403423E+00  1.97093492E+00  1.52987409E+01  2.61122542E-04  9.76271314E-02
 -1.53667555E+01  1.05229418E-03  7.04703464E-01 -1.64546063E+01 -1.66109607E+00
  7.03446314E-01 -1.64540375E+01  1.66403423E+00 -1.97093492E+00 -1.52987409E+01
  2.61122542E-04
Force Field                                I                0
Int Atom Types                             I   N=          32
           0           0           0           0           0           0
           0           0           0           0           0           0
           0           0           0           0           0           0
           0           0           0           0           0           0
           0           0           0           0           0           0
           0           0
MM charges                                 R   N=          32
  0.00000000E+00  0.00000000E+00  0.00000000E+00  0.00000000E+00  0.00000000E+00
  0.00000000E+00  0.00000000E+00  0.00000000E+00  0.00000000E+00  0.00000000E+00
  0.00000000E+00  0.00000000E+00  0.00000000E+00  0.00000000E+00  0.00000000E+00
  0.00000000E+00  0.00000000E+00  0.00000000E+00  0.00000000E+00  0.00000000E+00
  0.00000000E+00  0.00000000E+00  0.00000000E+00  0.00000000E+00  0.00000000E+00
  0.00000000E+00  0.00000000E+00  0.00000000E+00  0.00000000E+00  0.00000000E+00
  0.00000000E+00  0.00000000E+00
Integer atomic weights                     I   N=          32
          12           1          12           1          12           1
          12           1          12           1          12           1
          12           1          12           1          12           1
          12           1          12           1          12           1
          12           1           1           1          12           1
           1           1
Real atomic weights                        R   N=          32
  1.20000000E+01  1.00782504E+00  1.20000000E+01  1.00782504E+00  1.20000000E+01
  1.00782504E+00  1.20000000E+01  1.00782504E+00  1.20000000E+01  1.00782504E+00
  1.20000000E+01  1.00782504E+00  1.20000000E+01  1.00782504E+00  1.20000000E+01
  1.00782504E+00  1.20000000E+01  1.00782504E+00  1.20000000E+01  1.00782504E+00
  1.20000000E+01  1.00782504E+00  1.20000000E+01  1.00782504E+00  1.20000000E+01
  1.00782504E+00  1.00782504E+00  1.00782504E+00  1.20000000E+01  1.00782504E+00
  1.00782504E+00  1.00782504E+00
Atom fragment info                         I   N=          32
           0           0           0           0           0           0
           0           0           0           0           0           0
           0           0           0           0           0           0
           0           0           0           0           0           0
           0           0           0           0           0           0
           0           0
Atom residue num                           I   N=          32
           0           0           0           0           0           0
           0           0           0           0           0           0
           0           0           0           0           0           0
           0           0           0           0           0           0
           0           0           0           0           0           0
           0           0
Nuclear spins                              I   N=          32
           0           1           0           1           0           1
           0           1           0           1           0           1
           0           1           0           1           0           1
           0           1           0           1           0           1
           0           1           1           1           0           1
           1           1
Nuclear ZEff                               R   N=          32
 -3.60000000E+00 -1.00000000E+00 -3.60000000E+00 -1.00000000E+00 -3.60000000E+00
 -1.00000000E+00 -3.60000000E+00 -1.00000000E+00 -3.60000000E+00 -1.00000000E+00
 -3.60000000E+00 -1.00000000E+00 -3.60000000E+00 -1.00000000E+00 -3.60000000E+00
 -1.00000000E+00 -3.60000000E+00 -1.00000000E+00 -3.60000000E+00 -1.00000000E+00
 -3.60000000E+00 -1.00000000E+00 -3.60000000E+00 -1.00000000E+00 -3.60000000E+00
 -1.00000000E+00 -1.00000000E+00 -1.00000000E+00 -3.60000000E+00 -1.00000000E+00
 -1.00000000E+00 -1.00000000E+00
Nuclear ZNuc                               R   N=          32
  6.00000000E+00  1.00000000E+00  6.00000000E+00  1.00000000E+00  6.00000000E+00
  1.00000000E+00  6.00000000E+00  1.00000000E+00  6.00000000E+00  1.00000000E+00
  6.00000000E+00  1.00000000E+00  6.00000000E+00  1.00000000E+00  6.00000000E+00
  1.00000000E+00  6.00000000E+00  1.00000000E+00  6.00000000E+00  1.00000000E+00
  6.00000000E+00  1.00000000E+00  6.00000000E+00  1.00000000E+00  6.00000000E+00
  1.00000000E+00  1.00000000E+00  1.00000000E+00  6.00000000E+00  1.00000000E+00
  1.00000000E+00  1.00000000E+00
Nuclear QMom                               R   N=          32
  0.00000000E+00  0.00000000E+00  0.00000000E+00  0.00000000E+00  0.00000000E+00
  0.00000000E+00  0.00000000E+00  0.00000000E+00  0.00000000E+00  0.00000000E+00
  0.00000000E+00  0.00000000E+00  0.00000000E+00  0.00000000E+00  0.00000000E+00
  0.00000000E+00  0.00000000E+00  0.00000000E+00  0.00000000E+00  0.00000000E+00
  0.00000000E+00  0.00000000E+00  0.00000000E+00  0.00000000E+00  0.00000000E+00
  0.00000000E+00  0.00000000E+00  0.00000000E+00  0.00000000E+00  0.00000000E+00
  0.00000000E+00  0.00000000E+00
Nuclear GFac                               R   N=          32
  0.00000000E+00  2.79284600E+00  0.00000000E+00  2.79284600E+00  0.00000000E+00
  2.79284600E+00  0.00000000E+00  2.79284600E+00  0.00000000E+00  2.79284600E+00
  0.00000000E+00  2.79284600E+00  0.00000000E+00  2.79284600E+00  0.00000000E+00
  2.79284600E+00  0.00000000E+00  2.79284600E+00  0.00000000E+00  2.79284600E+00
  0.00000000E+00  2.79284600E+00  0.00000000E+00  2.79284600E+00  0.00000000E+00
  2.79284600E+00  2.79284600E+00  2.79284600E+00  0.00000000E+00  2.79284600E+00
  2.79284600E+00  2.79284600E+00
MicOpt                                     I   N=          32
          -1          -1          -1          -1          -1          -1
          -1          -1          -1          -1          -1          -1
          -1          -1          -1          -1          -1          -1
          -1          -1          -1          -1          -1          -1
          -1          -1          -1          -1          -1          -1
          -1          -1
SymInf integers                            I   N=          26
           2           2           1           1           1          -1
          -1           1           0           0           0           0
           0           0           0           0           0           0
           0           0           0           0           0           0
           0           0
RotTr to input orientation                 R   N=          12
 -3.60536922E-02 -9.99349854E-01  0.00000000E+00  9.99349854E-01 -3.60536922E-02
  0.00000000E+00  0.00000000E+00  0.00000000E+00  1.00000000E+00  9.26336149E-10
 -3.48305263E-17 -1.85267266E-10
Number of contracted shells                I               92
Number of primitive shells                 I              226
Pure/Cartesian d shells                    I                1
Pure/Cartesian f shells                    I                0
Highest angular momentum                   I                2
Largest degree of contraction              I                6
Shell types                                I   N=          92
           0          -1          -1           2           0           0
           0          -1          -1           2           0           0
           0          -1          -1           2           0           0
           0          -1          -1           2           0           0
           0          -1          -1           2           0           0
           0          -1          -1           2           0           0
           0          -1          -1           2           0           0
           0          -1          -1           2           0           0
           0          -1          -1           2           0           0
           0          -1          -1           2           0           0
           0          -1          -1           2           0           0
           0          -1          -1           2           0           0
           0          -1          -1           2           0           0
           0           0           0           0           0          -1
          -1           2           0           0           0           0
           0           0
Number of primitives per shell             I   N=          92
           6           3           1           1           3           1
           6           3           1           1           3           1
           6           3           1           1           3           1
           6           3           1           1           3           1
           6           3           1           1           3           1
           6           3           1           1           3           1
           6           3           1           1           3           1
           6           3           1           1           3           1
           6           3           1           1           3           1
           6           3           1           1           3           1
           6           3           1           1           3           1
           6           3           1           1           3           1
           6           3           1           1           3           1
           3           1           3           1           6           3
           1           1           3           1           3           1
           3           1
Shell to atom map                          I   N=          92
           1           1           1           1           2           2
           3           3           3           3           4           4
           5           5           5           5           6           6
           7           7           7           7           8           8
           9           9           9           9          10          10
          11          11          11          11          12          12
          13          13          13          13          14          14
          15          15          15          15          16          16
          17          17          17          17          18          18
          19          19          19          19          20          20
          21          21          21          21          22          22
          23          23          23          23          24          24
          25          25          25          25          26          26
          27          27          28          28          29          29
          29          29          30          30          31          31
          32          32
Primitive exponents                        R   N=         226
  3.04752488E+03  4.57369518E+02  1.03948685E+02  2.92101553E+01  9.28666296E+00
  3.16392696E+00  7.86827235E+00  1.88128854E+00  5.44249258E-01  1.68714478E-01
  8.00000000E-01  1.87311370E+01  2.82539436E+00  6.40121692E-01  1.61277759E-01
  3.04752488E+03  4.57369518E+02  1.03948685E+02  2.92101553E+01  9.28666296E+00
  3.16392696E+00  7.86827235E+00  1.88128854E+00  5.44249258E-01  1.68714478E-01
  8.00000000E-01  1.87311370E+01  2.82539436E+00  6.40121692E-01  1.61277759E-01
  3.04752488E+03  4.57369518E+02  1.03948685E+02  2.92101553E+01  9.28666296E+00
  3.16392696E+00  7.86827235E+00  1.88128854E+00  5.44249258E-01  1.68714478E-01
  8.00000000E-01  1.87311370E+01  2.82539436E+00  6.40121692E-01  1.61277759E-01
  3.04752488E+03  4.57369518E+02  1.03948685E+02  2.92101553E+01  9.28666296E+00
  3.16392696E+00  7.86827235E+00  1.88128854E+00  5.44249258E-01  1.68714478E-01
  8.00000000E-01  1.87311370E+01  2.82539436E+00  6.40121692E-01  1.61277759E-01
  3.04752488E+03  4.57369518E+02  1.03948685E+02  2.92101553E+01  9.28666296E+00
  3.16392696E+00  7.86827235E+00  1.88128854E+00  5.44249258E-01  1.68714478E-01
  8.00000000E-01  1.87311370E+01  2.82539436E+00  6.40121692E-01  1.61277759E-01
  3.04752488E+03  4.57369518E+02  1.03948685E+02  2.92101553E+01  9.28666296E+00
  3.16392696E+00  7.86827235E+00  1.88128854E+00  5.44249258E-01  1.68714478E-01
  8.00000000E-01  1.87311370E+01  2.82539436E+00  6.40121692E-01  1.61277759E-01
  3.04752488E+03  4.57369518E+02  1.03948685E+02  2.92101553E+01  9.28666296E+00
  3.16392696E+00  7.86827235E+00  1.88128854E+00  5.44249258E-01  1.68714478E-01
  8.00000000E-01  1.87311370E+01  2.82539436E+00  6.40121692E-01  1.61277759E-01
  3.04752488E+03  4.57369518E+02  1.03948685E+02  2.92101553E+01  9.28666296E+00
  3.16392696E+00  7.86827235E+00  1.88128854E+00  5.44249258E-01  1.68714478E-01
  8.00000000E-01  1.87311370E+01  2.82539436E+00  6.40121692E-01  1.61277759E-01
  3.04752488E+03  4.57369518E+02  1.03948685E+02  2.92101553E+01  9.28666296E+00
  3.16392696E+00  7.86827235E+00  1.88128854E+00  5.44249258E-01  1.68714478E-01
  8.00000000E-01  1.87311370E+01  2.82539436E+00  6.40121692E-01  1.61277759E-01
  3.04752488E+03  4.57369518E+02  1.03948685E+02  2.92101553E+01  9.28666296E+00
  3.16392696E+00  7.86827235E+00  1.88128854E+00  5.44249258E-01  1.68714478E-01
  8.00000000E-01  1.87311370E+01  2.82539436E+00  6.40121692E-01  1.61277759E-01
  3.04752488E+03  4.57369518E+02  1.03948685E+02  2.92101553E+01  9.28666296E+00
  3.16392696E+00  7.86827235E+00  1.88128854E+00  5.44249258E-01  1.68714478E-01
  8.00000000E-01  1.87311370E+01  2.82539436E+00  6.40121692E-01  1.61277759E-01
  3.04752488E+03  4.57369518E+02  1.03948685E+02  2.92101553E+01  9.28666296E+00
  3.16392696E+00  7.86827235E+00  1.88128854E+00  5.44249258E-01  1.68714478E-01
  8.00000000E-01  1.87311370E+01  2.82539436E+00  6.40121692E-01  1.61277759E-01
  3.04752488E+03  4.57369518E+02  1.03948685E+02  2.92101553E+01  9.28666296E+00
  3.16392696E+00  7.86827235E+00  1.88128854E+00  5.44249258E-01  1.68714478E-01
  8.00000000E-01  1.87311370E+01  2.82539436E+00  6.40121692E-01  1.61277759E-01
  1.87311370E+01  2.82539436E+00  6.40121692E-01  1.61277759E-01  1.87311370E+01
  2.82539436E+00  6.40121692E-01  1.61277759E-01  3.04752488E+03  4.57369518E+02
  1.03948685E+02  2.92101553E+01  9.28666296E+00  3.16392696E+00  7.86827235E+00
  1.88128854E+00  5.44249258E-01  1.68714478E-01  8.00000000E-01  1.87311370E+01
  2.82539436E+00  6.40121692E-01  1.61277759E-01  1.87311370E+01  2.82539436E+00
  6.40121692E-01  1.61277759E-01  1.87311370E+01  2.82539436E+00  6.40121692E-01
  1.61277759E-01
Contraction coefficients                   R   N=         226
  1.83473713E-03  1.40373228E-02  6.88426223E-02  2.32184443E-01  4.67941348E-01
  3.62311985E-01 -1.19332420E-01 -1.60854152E-01  1.14345644E+00  1.00000000E+00
  1.00000000E+00  3.34946043E-02  2.34726953E-01  8.13757326E-01  1.00000000E+00
  1.83473713E-03  1.40373228E-02  6.88426223E-02  2.32184443E-01  4.67941348E-01
  3.62311985E-01 -1.19332420E-01 -1.60854152E-01  1.14345644E+00  1.00000000E+00
  1.00000000E+00  3.34946043E-02  2.34726953E-01  8.13757326E-01  1.00000000E+00
  1.83473713E-03  1.40373228E-02  6.88426223E-02  2.32184443E-01  4.67941348E-01
  3.62311985E-01 -1.19332420E-01 -1.60854152E-01  1.14345644E+00  1.00000000E+00
  1.00000000E+00  3.34946043E-02  2.34726953E-01  8.13757326E-01  1.00000000E+00
  1.83473713E-03  1.40373228E-02  6.88426223E-02  2.32184443E-01  4.67941348E-01
  3.62311985E-01 -1.19332420E-01 -1.60854152E-01  1.14345644E+00  1.00000000E+00
  1.00000000E+00  3.34946043E-02  2.34726953E-01  8.13757326E-01  1.00000000E+00
  1.83473713E-03  1.40373228E-02  6.88426223E-02  2.32184443E-01  4.67941348E-01
  3.62311985E-01 -1.19332420E-01 -1.60854152E-01  1.14345644E+00  1.00000000E+00
  1.00000000E+00  3.34946043E-02  2.34726953E-01  8.13757326E-01  1.00000000E+00
  1.83473713E-03  1.40373228E-02  6.88426223E-02  2.32184443E-01  4.67941348E-01
  3.62311985E-01 -1.19332420E-01 -1.60854152E-01  1.14345644E+00  1.00000000E+00
  1.00000000E+00  3.34946043E-02  2.34726953E-01  8.13757326E-01  1.00000000E+00
  1.83473713E-03  1.40373228E-02  6.88426223E-02  2.32184443E-01  4.67941348E-01
  3.62311985E-01 -1.19332420E-01 -1.60854152E-01  1.14345644E+00  1.00000000E+00
  1.00000000E+00  3.34946043E-02  2.34726953E-01  8.13757326E-01  1.00000000E+00
  1.83473713E-03  1.40373228E-02  6.88426223E-02  2.32184443E-01  4.67941348E-01
  3.62311985E-01 -1.19332420E-01 -1.60854152E-01  1.14345644E+00  1.00000000E+00
  1.00000000E+00  3.34946043E-02  2.34726953E-01  8.13757326E-01  1.00000000E+00
  1.83473713E-03  1.40373228E-02  6.88426223E-02  2.32184443E-01  4.67941348E-01
  3.62311985E-01 -1.19332420E-01 -1.60854152E-01  1.14345644E+00  1.00000000E+00
  1.00000000E+00  3.34946043E-02  2.34726953E-01  8.13757326E-01  1.00000000E+00
  1.83473713E-03  1.40373228E-02  6.88426223E-02  2.32184443E-01  4.67941348E-01
  3.62311985E-01 -1.19332420E-01 -1.60854152E-01  1.14345644E+00  1.00000000E+00
  1.00000000E+00  3.34946043E-02  2.34726953E-01  8.13757326E-01  1.00000000E+00
  1.83473713E-03  1.40373228E-02  6.88426223E-02  2.32184443E-01  4.67941348E-01
  3.62311985E-01 -1.19332420E-01 -1.60854152E-01  1.14345644E+00  1.00000000E+00
  1.00000000E+00  3.34946043E-02  2.34726953E-01  8.13757326E-01  1.00000000E+00
  1.83473713E-03  1.40373228E-02  6.88426223E-02  2.32184443E-01  4.67941348E-01
  3.62311985E-01 -1.19332420E-01 -1.60854152E-01  1.14345644E+00  1.00000000E+00
  1.00000000E+00  3.34946043E-02  2.34726953E-01  8.13757326E-01  1.00000000E+00
  1.83473713E-03  1.40373228E-02  6.88426223E-02  2.32184443E-01  4.67941348E-01
  3.62311985E-01 -1.19332420E-01 -1.60854152E-01  1.14345644E+00  1.00000000E+00
  1.00000000E+00  3.34946043E-02  2.34726953E-01  8.13757326E-01  1.00000000E+00
  3.34946043E-02  2.34726953E-01  8.13757326E-01  1.00000000E+00  3.34946043E-02
  2.34726953E-01  8.13757326E-01  1.00000000E+00  1.83473713E-03  1.40373228E-02
  6.88426223E-02  2.32184443E-01  4.67941348E-01  3.62311985E-01 -1.19332420E-01
 -1.60854152E-01  1.14345644E+00  1.00000000E+00  1.00000000E+00  3.34946043E-02
  2.34726953E-01  8.13757326E-01  1.00000000E+00  3.34946043E-02  2.34726953E-01
  8.13757326E-01  1.00000000E+00  3.34946043E-02  2.34726953E-01  8.13757326E-01
  1.00000000E+00
P(S=P) Contraction coefficients            R   N=         226
  0.00000000E+00  0.00000000E+00  0.00000000E+00  0.00000000E+00  0.00000000E+00
  0.00000000E+00  6.89990666E-02  3.16423961E-01  7.44308291E-01  1.00000000E+00
  0.00000000E+00  0.00000000E+00  0.00000000E+00  0.00000000E+00  0.00000000E+00
  0.00000000E+00  0.00000000E+00  0.00000000E+00  0.00000000E+00  0.00000000E+00
  0.00000000E+00  6.89990666E-02  3.16423961E-01  7.44308291E-01  1.00000000E+00
  0.00000000E+00  0.00000000E+00  0.00000000E+00  0.00000000E+00  0.00000000E+00
  0.00000000E+00  0.00000000E+00  0.00000000E+00  0.00000000E+00  0.00000000E+00
  0.00000000E+00  6.89990666E-02  3.16423961E-01  7.44308291E-01  1.00000000E+00
  0.00000000E+00  0.00000000E+00  0.00000000E+00  0.00000000E+00  0.00000000E+00
  0.00000000E+00  0.00000000E+00  0.00000000E+00  0.00000000E+00  0.00000000E+00
  0.00000000E+00  6.89990666E-02  3.16423961E-01  7.44308291E-01  1.00000000E+00
  0.00000000E+00  0.00000000E+00  0.00000000E+00  0.00000000E+00  0.00000000E+00
  0.00000000E+00  0.00000000E+00  0.00000000E+00  0.00000000E+00  0.00000000E+00
  0.00000000E+00  6.89990666E-02  3.16423961E-01  7.44308291E-01  1.00000000E+00
  0.00000000E+00  0.00000000E+00  0.00000000E+00  0.00000000E+00  0.00000000E+00
  0.00000000E+00  0.00000000E+00  0.00000000E+00  0.00000000E+00  0.00000000E+00
  0.00000000E+00  6.89990666E-02  3.16423961E-01  7.44308291E-01  1.00000000E+00
  0.00000000E+00  0.00000000E+00  0.00000000E+00  0.00000000E+00  0.00000000E+00
  0.00000000E+00  0.00000000E+00  0.00000000E+00  0.00000000E+00  0.00000000E+00
  0.00000000E+00  6.89990666E-02  3.16423961E-01  7.44308291E-01  1.00000000E+00
  0.00000000E+00  0.00000000E+00  0.00000000E+00  0.00000000E+00  0.00000000E+00
  0.00000000E+00  0.00000000E+00  0.00000000E+00  0.00000000E+00  0.00000000E+00
  0.00000000E+00  6.89990666E-02  3.16423961E-01  7.44308291E-01  1.00000000E+00
  0.00000000E+00  0.00000000E+00  0.00000000E+00  0.00000000E+00  0.00000000E+00
  0.00000000E+00  0.00000000E+00  0.00000000E+00  0.00000000E+00  0.00000000E+00
  0.00000000E+00  6.89990666E-02  3.16423961E-01  7.44308291E-01  1.00000000E+00
  0.00000000E+00  0.00000000E+00  0.00000000E+00  0.00000000E+00  0.00000000E+00
  0.00000000E+00  0.00000000E+00  0.00000000E+00  0.00000000E+00  0.00000000E+00
  0.00000000E+00  6.89990666E-02  3.16423961E-01  7.44308291E-01  1.00000000E+00
  0.00000000E+00  0.00000000E+00  0.00000000E+00  0.00000000E+00  0.00000000E+00
  0.00000000E+00  0.00000000E+00  0.00000000E+00  0.00000000E+00  0.00000000E+00
  0.00000000E+00  6.89990666E-02  3.16423961E-01  7.44308291E-01  1.00000000E+00
  0.00000000E+00  0.00000000E+00  0.00000000E+00  0.00000000E+00  0.00000000E+00
  0.00000000E+00  0.00000000E+00  0.00000000E+00  0.00000000E+00  0.00000000E+00
  0.00000000E+00  6.89990666E-02  3.16423961E-01  7.44308291E-01  1.00000000E+00
  0.00000000E+00  0.00000000E+00  0.00000000E+00  0.00000000E+00  0.00000000E+00
  0.00000000E+00  0.00000000E+00  0.00000000E+00  0.00000000E+00  0.00000000E+00
  0.00000000E+00  6.89990666E-02  3.16423961E-01  7.44308291E-01  1.00000000E+00
  0.00000000E+00  0.00000000E+00  0.00000000E+00  0.00000000E+00  0.00000000E+00
  0.00000000E+00  0.00000000E+00  0.00000000E+00  0.00000000E+00  0.00000000E+00
  0.00000000E+00  0.00000000E+00  0.00000000E+00  0.00000000E+00  0.00000000E+00
  0.00000000E+00  0.00000000E+00  0.00000000E+00  0.00000000E+00  6.89990666E-02
  3.16423961E-01  7.44308291E-01  1.00000000E+00  0.00000000E+00  0.00000000E+00
  0.00000000E+00  0.00000000E+00  0.00000000E+00  0.00000000E+00  0.00000000E+00
  0.00000000E+00  0.00000000E+00  0.00000000E+00  0.00000000E+00  0.00000000E+00
  0.00000000E+00
Coordinates of each shell                  R   N=         276
  7.87602426E-01 -3.43416416E+00 -7.83536961E-04  7.87602426E-01 -3.43416416E+00
 -7.83536961E-04  7.87602426E-01 -3.43416416E+00 -7.83536961E-04  7.87602426E-01
 -3.43416416E+00 -7.83536961E-04  2.84693945E+00 -3.33230088E+00 -5.75270244E-04
  2.84693945E+00 -3.33230088E+00 -5.75270244E-04 -5.52833857E-01 -1.23725815E+00
 -9.99457069E-04 -5.52833857E-01 -1.23725815E+00 -9.99457069E-04 -5.52833857E-01
 -1.23725815E+00 -9.99457069E-04 -5.52833857E-01 -1.23725815E+00 -9.99457069E-04
 -2.61219512E+00 -1.33963114E+00 -1.21259928E-03 -2.61219512E+00 -1.33963114E+00
 -1.21259928E-03  5.52833857E-01  1.23725815E+00 -9.99457069E-04  5.52833857E-01
  1.23725815E+00 -9.99457069E-04  5.52833857E-01  1.23725815E+00 -9.99457069E-04
  5.52833857E-01  1.23725815E+00 -9.99457069E-04  2.61219512E+00  1.33963114E+00
 -1.21259928E-03  2.61219512E+00  1.33963114E+00 -1.21259928E-03 -7.87602426E-01
  3.43416416E+00 -7.83536961E-04 -7.87602426E-01  3.43416416E+00 -7.83536961E-04
 -7.87602426E-01  3.43416416E+00 -7.83536961E-04 -7.87602426E-01  3.43416416E+00
 -7.83536961E-04 -2.84693945E+00  3.33230088E+00 -5.75270244E-04 -2.84693945E+00
  3.33230088E+00 -5.75270244E-04  3.19496809E-01  5.91195761E+00 -8.28040012E-04
  3.19496809E-01  5.91195761E+00 -8.28040012E-04  3.19496809E-01  5.91195761E+00
 -8.28040012E-04  3.19496809E-01  5.91195761E+00 -8.28040012E-04  2.37910747E+00
  6.01190950E+00 -1.57729753E-03  2.37910747E+00  6.01190950E+00 -1.57729753E-03
 -1.01759490E+00  8.10376043E+00  8.65685394E-05 -1.01759490E+00  8.10376043E+00
  8.65685394E-05 -1.01759490E+00  8.10376043E+00  8.65685394E-05 -1.01759490E+00
  8.10376043E+00  8.65685394E-05 -3.07712838E+00  8.00695209E+00  9.07182113E-04
 -3.07712838E+00  8.00695209E+00  9.07182113E-04  9.76271314E-02  1.05955473E+01
  1.13912877E-04  9.76271314E-02  1.05955473E+01  1.13912877E-04  9.76271314E-02
  1.05955473E+01  1.13912877E-04  9.76271314E-02  1.05955473E+01  1.13912877E-04
  2.15839455E+00  1.06856378E+01 -6.94757627E-04  2.15839455E+00  1.06856378E+01
 -6.94757627E-04 -1.22691496E+00  1.27706922E+01  1.04250540E-03 -1.22691496E+00
  1.27706922E+01  1.04250540E-03 -1.22691496E+00  1.27706922E+01  1.04250540E-03
 -1.22691496E+00  1.27706922E+01  1.04250540E-03 -3.28665219E+00  1.26683017E+01
  1.84824683E-03 -3.28665219E+00  1.26683017E+01  1.84824683E-03 -3.19496809E-01
 -5.91195761E+00 -8.28040012E-04 -3.19496809E-01 -5.91195761E+00 -8.28040012E-04
 -3.19496809E-01 -5.91195761E+00 -8.28040012E-04 -3.19496809E-01 -5.91195761E+00
 -8.28040012E-04 -2.37910747E+00 -6.01190950E+00 -1.57729753E-03 -2.37910747E+00
 -6.01190950E+00 -1.57729753E-03  1.01759490E+00 -8.10376043E+00  8.65685394E-05
  1.01759490E+00 -8.10376043E+00  8.65685394E-05  1.01759490E+00 -8.10376043E+00
  8.65685394E-05  1.01759490E+00 -8.10376043E+00  8.65685394E-05  3.07712838E+00
 -8.00695209E+00  9.07182113E-04  3.07712838E+00 -8.00695209E+00  9.07182113E-04
 -9.76271314E-02 -1.05955473E+01  1.13912877E-04 -9.76271314E-02 -1.05955473E+01
  1.13912877E-04 -9.76271314E-02 -1.05955473E+01  1.13912877E-04 -9.76271314E-02
 -1.05955473E+01  1.13912877E-04 -2.15839455E+00 -1.06856378E+01 -6.94757627E-04
 -2.15839455E+00 -1.06856378E+01 -6.94757627E-04  1.22691496E+00 -1.27706922E+01
  1.04250540E-03  1.22691496E+00 -1.27706922E+01  1.04250540E-03  1.22691496E+00
 -1.27706922E+01  1.04250540E-03  1.22691496E+00 -1.27706922E+01  1.04250540E-03
  3.28665219E+00 -1.26683017E+01  1.84824683E-03  3.28665219E+00 -1.26683017E+01
  1.84824683E-03 -9.76271314E-02  1.53667555E+01  1.05229418E-03 -9.76271314E-02
  1.53667555E+01  1.05229418E-03 -9.76271314E-02  1.53667555E+01  1.05229418E-03
 -9.76271314E-02  1.53667555E+01  1.05229418E-03 -7.04703464E-01  1.64546063E+01
 -1.66109607E+00 -7.04703464E-01  1.64546063E+01 -1.66109607E+00 -7.03446314E-01
  1.64540375E+01  1.66403423E+00 -7.03446314E-01  1.64540375E+01  1.66403423E+00
  1.97093492E+00  1.52987409E+01  2.61122542E-04  1.97093492E+00  1.52987409E+01
  2.61122542E-04  9.76271314E-02 -1.53667555E+01  1.05229418E-03  9.76271314E-02
 -1.53667555E+01  1.05229418E-03  9.76271314E-02 -1.53667555E+01  1.05229418E-03
  9.76271314E-02 -1.53667555E+01  1.05229418E-03  7.04703464E-01 -1.64546063E+01
 -1.66109607E+00  7.04703464E-01 -1.64546063E+01 -1.66109607E+00  7.03446314E-01