 Entering Gaussian System, Link 0=/opt/app/gaussian09/e01/g09/g09.exec
 Input=mini_6_pp_td.gjf
 Output=mini_6_pp_td.log
 Initial command:
 /opt/app/gaussian09/e01/g09/l1.exe "./Gau-18890.inp" -scrdir="./"
 Entering Link 1 = /opt/app/gaussian09/e01/g09/l1.exe PID=     18894.
  
 Copyright (c) 1988,1990,1992,1993,1995,1998,2003,2009,2015,
            Gaussian, Inc.  All Rights Reserved.
  
 This is part of the Gaussian(R) 09 program.  It is based on
 the Gaussian(R) 03 system (copyright 2003, Gaussian, Inc.),
 the Gaussian(R) 98 system (copyright 1998, Gaussian, Inc.),
 the Gaussian(R) 94 system (copyright 1995, Gaussian, Inc.),
 the Gaussian 92(TM) system (copyright 1992, Gaussian, Inc.),
 the Gaussian 90(TM) system (copyright 1990, Gaussian, Inc.),
 the Gaussian 88(TM) system (copyright 1988, Gaussian, Inc.),
 the Gaussian 86(TM) system (copyright 1986, Carnegie Mellon
 University), and the Gaussian 82(TM) system (copyright 1983,
 Carnegie Mellon University). Gaussian is a federally registered
 trademark of Gaussian, Inc.
  
 This software contains proprietary and confidential information,
 including trade secrets, belonging to Gaussian, Inc.
  
 This software is provided under written license and may be
 used, copied, transmitted, or stored only in accord with that
 written license.
  
 The following legend is applicable only to US Government
 contracts under FAR:
  
                    RESTRICTED RIGHTS LEGEND
  
 Use, reproduction and disclosure by the US Government is
 subject to restrictions as set forth in subparagraphs (a)
 and (c) of the Commercial Computer Software - Restricted
 Rights clause in FAR 52.227-19.
  
 Gaussian, Inc.
 340 Quinnipiac St., Bldg. 40, Wallingford CT 06492
  
  
 ---------------------------------------------------------------
 Warning -- This program may not be used in any manner that
 competes with the business of Gaussian, Inc. or will provide
 assistance to any competitor of Gaussian, Inc.  The licensee
 of this program is prohibited from giving any competitor of
 Gaussian, Inc. access to this program.  By using this program,
 the user acknowledges that Gaussian, Inc. is engaged in the
 business of creating and licensing software in the field of
 computational chemistry and represents and warrants to the
 licensee that it is not a competitor of Gaussian, Inc. and that
 it will not use this program in any manner prohibited above.
 ---------------------------------------------------------------
  

 Cite this work as:
 Gaussian 09, Revision E.01,
 M. J. Frisch, G. W. Trucks, H. B. Schlegel, G. E. Scuseria, 
 M. A. Robb, J. R. Cheeseman, G. Scalmani, V. Barone, B. Mennucci, 
 G. A. Petersson, H. Nakatsuji, M. Caricato, X. Li, H. P. Hratchian, 
 A. F. Izmaylov, J. Bloino, G. Zheng, J. L. Sonnenberg, M. Hada, 
 M. Ehara, K. Toyota, R. Fukuda, J. Hasegawa, M. Ishida, T. Nakajima, 
 Y. Honda, O. Kitao, H. Nakai, T. Vreven, J. A. Montgomery, Jr., 
 J. E. Peralta, F. Ogliaro, M. Bearpark, J. J. Heyd, E. Brothers, 
 K. N. Kudin, V. N. Staroverov, T. Keith, R. Kobayashi, J. Normand, 
 K. Raghavachari, A. Rendell, J. C. Burant, S. S. Iyengar, J. Tomasi, 
 M. Cossi, N. Rega, J. M. Millam, M. Klene, J. E. Knox, J. B. Cross, 
 V. Bakken, C. Adamo, J. Jaramillo, R. Gomperts, R. E. Stratmann, 
 O. Yazyev, A. J. Austin, R. Cammi, C. Pomelli, J. W. Ochterski, 
 R. L. Martin, K. Morokuma, V. G. Zakrzewski, G. A. Voth, 
 P. Salvador, J. J. Dannenberg, S. Dapprich, A. D. Daniels, 
 O. Farkas, J. B. Foresman, J. V. Ortiz, J. Cioslowski, 
 and D. J. Fox, Gaussian, Inc., Wallingford CT, 2013.
 
 ******************************************
 Gaussian 09:  ES64L-G09RevE.01 30-Nov-2015
                 7-Jun-2021 
 ******************************************
 %chk=mini_6_pp_td.chk
 -----------------------------------------------
 #p td b3lyp/6-31g(d) geom=connectivity pop=full
 -----------------------------------------------
 1/38=1,57=2/1;
 2/12=2,17=6,18=5,40=1/2;
 3/5=1,6=6,7=1,11=9,16=1,25=1,30=1,74=-5/1,2,8,3;
 4//1;
 5/5=2,38=5/2;
 8/6=1,10=2/1;
 9/42=1,70=2/14;
 6/7=3/1;
 99/5=1,9=1/99;
 Leave Link    1 at Mon Jun  7 10:24:54 2021, MaxMem=           0 cpu:         0.0
 (Enter /opt/app/gaussian09/e01/g09/l101.exe)
 -------------------
 Title Card Required
 -------------------
 Symbolic Z-matrix:
 Charge =  0 Multiplicity = 1
 C                    -1.83113  -0.35099  -0.00041 
 H                    -1.81655  -1.44198  -0.0003 
 C                    -0.64376   0.31596  -0.00053 
 H                    -0.6586    1.40697  -0.00064 
 C                     0.64376  -0.31596  -0.00053 
 H                     0.6586   -1.40697  -0.00064 
 C                     1.83113   0.35099  -0.00042 
 H                     1.81655   1.44198  -0.00031 
 C                     3.12034  -0.28175  -0.00044 
 H                     3.13391  -1.37285  -0.00083 
 C                     4.30495   0.38353   0.00005 
 H                     4.29305   1.47452   0.00048 
 C                     5.60141  -0.25378   0.00006 
 H                     5.60974  -1.3453   -0.00037 
 C                     6.77697   0.40518   0.00055 
 H                     6.76212   1.49639   0.00098 
 C                    -3.12034   0.28175  -0.00044 
 H                    -3.13391   1.37285  -0.00083 
 C                    -4.30495  -0.38353   0.00005 
 H                    -4.29305  -1.47452   0.00048 
 C                    -5.60141   0.25378   0.00006 
 H                    -5.60974   1.3453   -0.00037 
 C                    -6.77697  -0.40518   0.00055 
 H                    -6.76212  -1.49639   0.00098 
 C                     8.12831  -0.24155   0.00056 
 H                     8.71519   0.05874  -0.87901 
 H                     8.71486   0.05808   0.88057 
 H                     8.05288  -1.33418   0.00014 
 C                    -8.12831   0.24155   0.00056 
 H                    -8.71519  -0.05874  -0.87901 
 H                    -8.71486  -0.05808   0.88057 
 H                    -8.05288   1.33418   0.00014 
 
 NAtoms=     32 NQM=       32 NQMF=       0 NMMI=      0 NMMIF=      0
                NMic=       0 NMicF=      0.
                    Isotopes and Nuclear Properties:
 (Nuclear quadrupole moments (NQMom) in fm**2, nuclear magnetic moments (NMagM)
  in nuclear magnetons)

  Atom         1           2           3           4           5           6           7           8           9          10
 IAtWgt=          12           1          12           1          12           1          12           1          12           1
 AtmWgt=  12.0000000   1.0078250  12.0000000   1.0078250  12.0000000   1.0078250  12.0000000   1.0078250  12.0000000   1.0078250
 NucSpn=           0           1           0           1           0           1           0           1           0           1
 AtZEff=   0.0000000   0.0000000   0.0000000   0.0000000   0.0000000   0.0000000   0.0000000   0.0000000   0.0000000   0.0000000
 NQMom=    0.0000000   0.0000000   0.0000000   0.0000000   0.0000000   0.0000000   0.0000000   0.0000000   0.0000000   0.0000000
 NMagM=    0.0000000   2.7928460   0.0000000   2.7928460   0.0000000   2.7928460   0.0000000   2.7928460   0.0000000   2.7928460
 AtZNuc=   6.0000000   1.0000000   6.0000000   1.0000000   6.0000000   1.0000000   6.0000000   1.0000000   6.0000000   1.0000000

  Atom        11          12          13          14          15          16          17          18          19          20
 IAtWgt=          12           1          12           1          12           1          12           1          12           1
 AtmWgt=  12.0000000   1.0078250  12.0000000   1.0078250  12.0000000   1.0078250  12.0000000   1.0078250  12.0000000   1.0078250
 NucSpn=           0           1           0           1           0           1           0           1           0           1
 AtZEff=   0.0000000   0.0000000   0.0000000   0.0000000   0.0000000   0.0000000   0.0000000   0.0000000   0.0000000   0.0000000
 NQMom=    0.0000000   0.0000000   0.0000000   0.0000000   0.0000000   0.0000000   0.0000000   0.0000000   0.0000000   0.0000000
 NMagM=    0.0000000   2.7928460   0.0000000   2.7928460   0.0000000   2.7928460   0.0000000   2.7928460   0.0000000   2.7928460
 AtZNuc=   6.0000000   1.0000000   6.0000000   1.0000000   6.0000000   1.0000000   6.0000000   1.0000000   6.0000000   1.0000000

  Atom        21          22          23          24          25          26          27          28          29          30
 IAtWgt=          12           1          12           1          12           1           1           1          12           1
 AtmWgt=  12.0000000   1.0078250  12.0000000   1.0078250  12.0000000   1.0078250   1.0078250   1.0078250  12.0000000   1.0078250
 NucSpn=           0           1           0           1           0           1           1           1           0           1
 AtZEff=   0.0000000   0.0000000   0.0000000   0.0000000   0.0000000   0.0000000   0.0000000   0.0000000   0.0000000   0.0000000
 NQMom=    0.0000000   0.0000000   0.0000000   0.0000000   0.0000000   0.0000000   0.0000000   0.0000000   0.0000000   0.0000000
 NMagM=    0.0000000   2.7928460   0.0000000   2.7928460   0.0000000   2.7928460   2.7928460   2.7928460   0.0000000   2.7928460
 AtZNuc=   6.0000000   1.0000000   6.0000000   1.0000000   6.0000000   1.0000000   1.0000000   1.0000000   6.0000000   1.0000000

  Atom        31          32
 IAtWgt=           1           1
 AtmWgt=   1.0078250   1.0078250
 NucSpn=           1           1
 AtZEff=   0.0000000   0.0000000
 NQMom=    0.0000000   0.0000000
 NMagM=    2.7928460   2.7928460
 AtZNuc=   1.0000000   1.0000000
 Leave Link  101 at Mon Jun  7 10:24:55 2021, MaxMem=    33554432 cpu:         0.1
 (Enter /opt/app/gaussian09/e01/g09/l202.exe)
                          Input orientation:                          
 ---------------------------------------------------------------------
 Center     Atomic      Atomic             Coordinates (Angstroms)
 Number     Number       Type             X           Y           Z
 ---------------------------------------------------------------------
      1          6           0       -1.831126   -0.350991   -0.000415
      2          1           0       -1.816547   -1.441980   -0.000304
      3          6           0       -0.643756    0.315962   -0.000529
      4          1           0       -0.658604    1.406974   -0.000642
      5          6           0        0.643756   -0.315962   -0.000529
      6          1           0        0.658604   -1.406974   -0.000641
      7          6           0        1.831126    0.350991   -0.000415
      8          1           0        1.816547    1.441980   -0.000305
      9          6           0        3.120344   -0.281754   -0.000438
     10          1           0        3.133907   -1.372851   -0.000835
     11          6           0        4.304952    0.383528    0.000046
     12          1           0        4.293050    1.474525    0.000480
     13          6           0        5.601414   -0.253779    0.000060
     14          1           0        5.609740   -1.345300   -0.000368
     15          6           0        6.776974    0.405184    0.000552
     16          1           0        6.762123    1.496395    0.000978
     17          6           0       -3.120344    0.281754   -0.000438
     18          1           0       -3.133907    1.372851   -0.000834
     19          6           0       -4.304952   -0.383528    0.000046
     20          1           0       -4.293050   -1.474525    0.000480
     21          6           0       -5.601414    0.253779    0.000060
     22          1           0       -5.609740    1.345300   -0.000367
     23          6           0       -6.776974   -0.405184    0.000551
     24          1           0       -6.762123   -1.496395    0.000978
     25          6           0        8.128313   -0.241551    0.000557
     26          1           0        8.715186    0.058737   -0.879014
     27          1           0        8.714862    0.058083    0.880569
     28          1           0        8.052879   -1.334177    0.000138
     29          6           0       -8.128313    0.241551    0.000557
     30          1           0       -8.715186   -0.058736   -0.879014
     31          1           0       -8.714862   -0.058083    0.880569
     32          1           0       -8.052879    1.334177    0.000138
 ---------------------------------------------------------------------
                    Distance matrix (angstroms):
                    1          2          3          4          5
     1  C    0.000000
     2  H    1.091087   0.000000
     3  C    1.361865   2.113244   0.000000
     4  H    2.113113   3.075284   1.091113   0.000000
     5  C    2.475130   2.705736   1.434230   2.159780   0.000000
     6  H    2.704414   2.475399   2.159780   3.106982   1.091113
     7  C    3.728924   4.064513   2.475130   2.704414   1.361865
     8  H    4.064513   4.638599   2.705736   2.475399   2.113244
     9  C    4.951954   5.071392   3.811261   4.139112   2.476824
    10  H    5.069098   4.950937   4.137973   4.702187   2.705155
    11  C    6.179885   6.387897   4.949169   5.067971   3.727418
    12  H    6.390465   6.770020   5.070928   4.952114   4.064873
    13  C    7.433176   7.512521   6.271105   6.476567   4.958048
    14  H    7.507006   7.426917   6.470394   6.845958   5.071542
    15  C    8.641249   8.789802   7.421266   7.502759   6.175469
    16  H    8.789583   9.067946   7.499365   7.421266   6.381149
    17  C    1.436122   2.161282   2.476824   2.706711   3.811261
    18  H    2.160756   3.107846   2.705155   2.475538   4.137973
    19  C    2.474039   2.704159   3.727418   4.062235   4.949169
    20  H    2.706177   2.476716   4.064873   4.638128   5.070928
    21  C    3.818483   4.147386   4.958048   5.075553   6.271105
    22  H    4.141898   4.707148   5.071542   4.951520   6.470394
    23  C    4.946144   5.067620   6.175469   6.381094   7.421266
    24  H    5.062281   4.945876   6.381149   6.758883   7.499365
    25  C    9.960040  10.017049   8.789767   8.940220   7.484927
    26  H   10.590776  10.674348   9.403600   9.510900   8.127738
    27  H   10.590625  10.674114   9.403539   9.510936   8.127668
    28  H    9.932785   9.870015   8.851803   9.132570   7.478761
    29  C    6.325003   6.532431   7.484927   7.560077   8.789767
    30  H    6.946051   7.090607   8.127738   8.235798   9.403600
    31  H    6.946059   7.090687   8.127668   8.235667   9.403539
    32  H    6.445928   6.826337   7.478761   7.394633   8.851803
                    6          7          8          9         10
     6  H    0.000000
     7  C    2.113113   0.000000
     8  H    3.075284   1.091087   0.000000
     9  C    2.706711   1.436122   2.161282   0.000000
    10  H    2.475538   2.160756   3.107846   1.091182   0.000000
    11  C    4.062235   2.474039   2.704159   1.358638   2.110975
    12  H    4.638128   2.706177   2.476716   2.111813   3.074274
    13  C    5.075553   3.818483   4.147386   2.481228   2.709413
    14  H    4.951520   4.141898   4.707148   2.707069   2.475987
    15  C    6.381094   4.946144   5.067620   3.720595   4.053806
    16  H    6.758883   5.062281   4.945876   4.052700   4.625638
    17  C    4.139112   4.951954   5.071392   6.266077   6.469417
    18  H    4.702187   5.069098   4.950937   6.469417   6.842833
    19  C    5.067971   6.179885   6.387897   7.425993   7.504357
    20  H    4.952114   6.390465   6.770020   7.508735   7.427652
    21  C    6.476567   7.433176   7.512521   8.738184   8.885480
    22  H    6.845958   7.507006   7.426917   8.880409   9.156402
    23  C    7.502759   8.641249   8.789802   9.898087   9.958008
    24  H    7.421266   8.789583   9.067946   9.956832   9.896801
    25  C    7.560077   6.325003   6.532431   5.008130   5.120931
    26  H    8.235798   6.946051   7.090607   5.673632   5.828493
    27  H    8.235667   6.946059   7.090688   5.673649   5.828508
    28  H    7.394633   6.445928   6.826337   5.043560   4.919124
    29  C    8.940220   9.960040  10.017049  11.260822  11.377340
    30  H    9.510900  10.590775  10.674347  11.870190  11.954041
    31  H    9.510936  10.590625  10.674114  11.870058  11.954029
    32  H    9.132570   9.932785   9.870015  11.289470  11.509655
                   11         12         13         14         15
    11  C    0.000000
    12  H    1.091062   0.000000
    13  C    1.444637   2.167683   0.000000
    14  H    2.165945   3.112087   1.091553   0.000000
    15  C    2.472117   2.704324   1.347654   2.103955   0.000000
    16  H    2.697437   2.469171   2.100084   3.066466   1.091312
    17  C    7.425993   7.508735   8.738184   8.880409   9.898087
    18  H    7.504357   7.427652   8.885480   9.156402   9.958008
    19  C    8.644004   8.796476   9.907216   9.961231  11.109957
    20  H    8.796476   9.078436   9.969485   9.903633  11.228478
    21  C    9.907216   9.969485  11.214320  11.324621  12.379314
    22  H    9.961231   9.903633  11.324621  11.537593  12.422339
    23  C   11.109957  11.228478  12.379314  12.422339  13.578151
    24  H   11.225608  11.447411  12.425826  12.372786  13.671984
    25  C    3.874121   4.201685   2.526928   2.749813   1.498126
    26  H    4.508703   4.725808   3.250541   3.519536   2.156463
    27  H    4.508718   4.725811   3.250555   3.519561   2.156460
    28  H    4.122798   4.693093   2.678981   2.443164   2.157153
    29  C   12.434075  12.482406  13.738659  13.829396  14.906184
    30  H   13.057272  13.127780  14.344890  14.409399  15.524042
    31  H   13.057024  13.127422  14.344663  14.409275  15.523724
    32  H   12.394342  12.346726  13.746320  13.922886  14.858921
                   16         17         18         19         20
    16  H    0.000000
    17  C    9.956832   0.000000
    18  H    9.896801   1.091182   0.000000
    19  C   11.225608   1.358638   2.110975   0.000000
    20  H   11.447411   2.111813   3.074274   1.091062   0.000000
    21  C   12.425826   2.481228   2.709413   1.444637   2.167683
    22  H   12.372786   2.707069   2.475987   2.165945   3.112087
    23  C   13.671984   3.720595   4.053806   2.472117   2.704324
    24  H   13.851427   4.052700   4.625638   2.697437   2.469171
    25  C    2.210640  11.260822  11.377340  12.434075  12.482406
    26  H    2.579865  11.870190  11.954041  13.057272  13.127780
    27  H    2.579847  11.870058  11.954028  13.057024  13.127422
    28  H    3.110979  11.289470  11.509655  12.394342  12.346726
    29  C   14.943216   5.008130   5.120931   3.874121   4.201685
    30  H   15.580114   5.673632   5.828493   4.508703   4.725808
    31  H   15.579703   5.673649   5.828508   4.508718   4.725810
    32  H   14.815890   5.043560   4.919124   4.122798   4.693093
                   21         22         23         24         25
    21  C    0.000000
    22  H    1.091553   0.000000
    23  C    1.347654   2.103955   0.000000
    24  H    2.100084   3.066466   1.091312   0.000000
    25  C   13.738659  13.829396  14.906184  14.943216   0.000000
    26  H   14.344890  14.409399  15.524042  15.580114   1.099199
    27  H   14.344663  14.409275  15.523724  15.579703   1.099200
    28  H   13.746320  13.922886  14.858921  14.815890   1.095228
    29  C    2.526928   2.749813   1.498126   2.210640  16.263802
    30  H    3.250541   3.519536   2.156463   2.579865  16.867440
    31  H    3.250555   3.519561   2.156460   2.579847  16.867146
    32  H    2.678981   2.443164   2.157153   3.110979  16.257732
                   26         27         28         29         30
    26  H    0.000000
    27  H    1.759583   0.000000
    28  H    1.775322   1.775322   0.000000
    29  C   16.867440  16.867146  16.257732   0.000000
    30  H   17.430769  17.519028  16.839467   1.099199   0.000000
    31  H   17.519028  17.430110  16.839260   1.099200   1.759583
    32  H   16.839467  16.839260  16.325303   1.095228   1.775322
                   31         32
    31  H    0.000000
    32  H    1.775322   0.000000
 Stoichiometry    C14H18
 Framework group  C2[X(C14H18)]
 Deg. of freedom    46
 Full point group                 C2      NOp   2
 Largest Abelian subgroup         C2      NOp   2
 Largest concise Abelian subgroup C2      NOp   2
                         Standard orientation:                         
 ---------------------------------------------------------------------
 Center     Atomic      Atomic             Coordinates (Angstroms)
 Number     Number       Type             X           Y           Z
 ---------------------------------------------------------------------
      1          6           0        0.416781   -1.817281   -0.000415
      2          1           0        1.506535   -1.763378   -0.000304
      3          6           0       -0.292547   -0.654729   -0.000529
      4          1           0       -1.382314   -0.708902   -0.000642
      5          6           0        0.292547    0.654729   -0.000529
      6          1           0        1.382314    0.708902   -0.000642
      7          6           0       -0.416781    1.817281   -0.000415
      8          1           0       -1.506535    1.763378   -0.000304
      9          6           0        0.169070    3.128473   -0.000438
     10          1           0        1.258969    3.181365   -0.000835
     11          6           0       -0.538488    4.288325    0.000046
     12          1           0       -1.628346    4.237097    0.000480
     13          6           0        0.051662    5.606922    0.000060
     14          1           0        1.142173    5.654596   -0.000368
     15          6           0       -0.649255    6.757959    0.000552
     16          1           0       -1.739221    6.703777    0.000978
     17          6           0       -0.169070   -3.128473   -0.000438
     18          1           0       -1.258969   -3.181365   -0.000835
     19          6           0        0.538488   -4.288325    0.000046
     20          1           0        1.628346   -4.237097    0.000480
     21          6           0       -0.051662   -5.606922    0.000060
     22          1           0       -1.142173   -5.654596   -0.000368
     23          6           0        0.649255   -6.757959    0.000552
     24          1           0        1.739221   -6.703777    0.000978
     25          6           0       -0.051662    8.131737    0.000557
     26          1           0       -0.372913    8.707403   -0.879014
     27          1           0       -0.372248    8.707102    0.880569
     28          1           0        1.042974    8.095745    0.000138
     29          6           0        0.051662   -8.131737    0.000557
     30          1           0        0.372913   -8.707403   -0.879014
     31          1           0        0.372248   -8.707102    0.880569
     32          1           0       -1.042974   -8.095745    0.000138
 ---------------------------------------------------------------------
 Rotational constants (GHZ):     10.3326524      0.1037756      0.1028743
 Leave Link  202 at Mon Jun  7 10:24:56 2021, MaxMem=    33554432 cpu:         0.0
 (Enter /opt/app/gaussian09/e01/g09/l301.exe)
 Standard basis: 6-31G(d) (6D, 7F)
 Ernie: Thresh=  0.10000D-02 Tol=  0.10000D-05 Strict=F.
 There are   123 symmetry adapted cartesian basis functions of A   symmetry.
 There are   123 symmetry adapted cartesian basis functions of B   symmetry.
 There are   123 symmetry adapted basis functions of A   symmetry.
 There are   123 symmetry adapted basis functions of B   symmetry.
   246 basis functions,   464 primitive gaussians,   246 cartesian basis functions
    51 alpha electrons       51 beta electrons
       nuclear repulsion energy       680.4226479731 Hartrees.
 IExCor=  402 DFT=T Ex+Corr=B3LYP ExCW=0 ScaHFX=  0.200000
 ScaDFX=  0.800000  0.720000  1.000000  0.810000 ScalE2=  1.000000  1.000000
 IRadAn=      0 IRanWt=     -1 IRanGd=            0 ICorTp=0 IEmpDi=  4
 NAtoms=   32 NActive=   32 NUniq=   16 SFac= 4.00D+00 NAtFMM=   60 NAOKFM=F Big=F
 Integral buffers will be    131072 words long.
 Regular integral format.
 Two-electron integral symmetry is turned on.
 Leave Link  301 at Mon Jun  7 10:24:57 2021, MaxMem=    33554432 cpu:         0.1
 (Enter /opt/app/gaussian09/e01/g09/l302.exe)
 NPDir=0 NMtPBC=     1 NCelOv=     1 NCel=       1 NClECP=     1 NCelD=      1
         NCelK=      1 NCelE2=     1 NClLst=     1 CellRange=     0.0.
 One-electron integrals computed using PRISM.
 One-electron integral symmetry used in STVInt
 NBasis=   246 RedAO= T EigKep=  1.07D-03  NBF=   123   123
 NBsUse=   246 1.00D-06 EigRej= -1.00D+00 NBFU=   123   123
 Precomputing XC quadrature grid using
 IXCGrd= 4 IRadAn=           0 IRanWt=          -1 IRanGd=           0 AccXCQ= 0.00D+00.
 Generated NRdTot=       0 NPtTot=           0 NUsed=           0 NTot=          32
 NSgBfM=   229   229   229   229   229 MxSgAt=    32 MxSgA2=    32.
 Leave Link  302 at Mon Jun  7 10:25:01 2021, MaxMem=    33554432 cpu:         0.7
 (Enter /opt/app/gaussian09/e01/g09/l308.exe)
 Leave Link  308 at Mon Jun  7 10:25:02 2021, MaxMem=    33554432 cpu:         0.0
 (Enter /opt/app/gaussian09/e01/g09/l303.exe)
 DipDrv:  MaxL=1.
 Leave Link  303 at Mon Jun  7 10:25:02 2021, MaxMem=    33554432 cpu:         0.1
 (Enter /opt/app/gaussian09/e01/g09/l401.exe)
 ExpMin= 1.61D-01 ExpMax= 3.05D+03 ExpMxC= 4.57D+02 IAcc=1 IRadAn=         1 AccDes= 0.00D+00
 Harris functional with IExCor=  402 and IRadAn=       1 diagonalized for initial guess.
 HarFok:  IExCor=  402 AccDes= 0.00D+00 IRadAn=         1 IDoV= 1 UseB2=F ITyADJ=14
 ICtDFT=  3500011 ScaDFX=  1.000000  1.000000  1.000000  1.000000
 FoFCou: FMM=F IPFlag=           0 FMFlag=      100000 FMFlg1=           0
         NFxFlg=           0 DoJE=T BraDBF=F KetDBF=T FulRan=T
         wScrn=  0.000000 ICntrl=     500 IOpCl=  0 I1Cent=   200000004 NGrid=           0
         NMat0=    1 NMatS0=      1 NMatT0=    0 NMatD0=    1 NMtDS0=    0 NMtDT0=    0
 Petite list used in FoFCou.
 Harris En= -544.365993474582    
 JPrj=0 DoOrth=F DoCkMO=F.
 Initial guess orbital symmetries:
       Occupied  (B) (A) (B) (A) (A) (B) (A) (B) (A) (B) (A) (B)
                 (B) (A) (A) (B) (A) (B) (A) (B) (A) (B) (A) (B)
                 (B) (A) (A) (B) (A) (B) (B) (A) (B) (A) (A) (A)
                 (B) (B) (A) (B) (A) (B) (A) (B) (A) (A) (B) (A)
                 (B) (A) (B)
       Virtual   (A) (B) (A) (B) (A) (B) (B) (A) (B) (B) (A) (A)
                 (B) (A) (B) (A) (A) (B) (A) (B) (B) (A) (B) (A)
                 (B) (A) (B) (A) (B) (A) (B) (B) (A) (A) (B) (B)
                 (A) (A) (B) (A) (B) (A) (B) (A) (B) (B) (A) (B)
                 (A) (B) (A) (B) (A) (B) (A) (A) (B) (A) (B) (B)
                 (A) (A) (B) (B) (A) (B) (A) (A) (B) (A) (B) (A)
                 (B) (B) (A) (B) (A) (A) (B) (B) (A) (B) (A) (A)
                 (B) (B) (A) (B) (A) (A) (B) (B) (A) (A) (B) (B)
                 (A) (A) (B) (B) (A) (B) (A) (A) (B) (A) (B) (A)
                 (A) (B) (A) (B) (B) (A) (A) (B) (B) (A) (B) (A)
                 (B) (A) (B) (A) (A) (B) (A) (B) (A) (A) (B) (B)
                 (B) (B) (A) (A) (B) (A) (A) (B) (B) (A) (A) (B)
                 (B) (A) (B) (A) (B) (A) (B) (A) (B) (A) (A) (B)
                 (A) (B) (B) (A) (A) (B) (B) (B) (A) (A) (B) (A)
                 (B) (A) (B) (A) (B) (A) (A) (B) (B) (B) (A) (A)
                 (B) (A) (B) (A) (B) (A) (B) (A) (B) (A) (B) (A)
                 (B) (A) (B)
 The electronic state of the initial guess is 1-A.
 Leave Link  401 at Mon Jun  7 10:25:05 2021, MaxMem=    33554432 cpu:         1.4
 (Enter /opt/app/gaussian09/e01/g09/l502.exe)
 Closed shell SCF:
 Using DIIS extrapolation, IDIIS=  1040.
 Integral symmetry usage will be decided dynamically.
 IVT=      203794 IEndB=      203794 NGot=    33554432 MDV=    33428041
 LenX=    33428041 LenY=    33367084
 Requested convergence on RMS density matrix=1.00D-08 within 128 cycles.
 Requested convergence on MAX density matrix=1.00D-06.
 Requested convergence on             energy=1.00D-06.
 No special actions if energy rises.
 Fock matrices will be formed incrementally for  20 cycles.
 Integral accuracy reduced to 1.0D-05 until final iterations.

 Cycle   1  Pass 0  IDiag  1:
 FoFJK:  IHMeth= 1 ICntrl=       0 DoSepK=F KAlg= 0 I1Cent=   0 FoldK=F
 IRaf= 590000000 NMat=   1 IRICut=       1 DoRegI=T DoRafI=F ISym2E= 1.
 FoFCou: FMM=F IPFlag=           0 FMFlag=      100000 FMFlg1=           0
         NFxFlg=           0 DoJE=F BraDBF=F KetDBF=F FulRan=T
         wScrn=  0.000000 ICntrl=       0 IOpCl=  0 I1Cent=           0 NGrid=           0
         NMat0=    1 NMatS0=      1 NMatT0=    0 NMatD0=    1 NMtDS0=    0 NMtDT0=    0
 Petite list used in FoFCou.
 E= -543.850391341388    
 DIIS: error= 4.54D-02 at cycle   1 NSaved=   1.
 NSaved= 1 IEnMin= 1 EnMin= -543.850391341388     IErMin= 1 ErrMin= 4.54D-02
 ErrMax= 4.54D-02  0.00D+00 EMaxC= 1.00D-01 BMatC= 3.56D-01 BMatP= 3.56D-01
 IDIUse=3 WtCom= 5.46D-01 WtEn= 4.54D-01
 Coeff-Com:  0.100D+01
 Coeff-En:   0.100D+01
 Coeff:      0.100D+01
 Gap=     0.106 Goal=   None    Shift=    0.000
 GapD=    0.106 DampG=1.000 DampE=0.500 DampFc=0.5000 IDamp=-1.
 Damping current iteration by 5.00D-01
 RMSDP=5.50D-03 MaxDP=1.32D-01              OVMax= 1.66D-01

 Cycle   2  Pass 0  IDiag  1:
 RMSU=  2.68D-03    CP:  9.71D-01
 E= -544.056458089117     Delta-E=       -0.206066747729 Rises=F Damp=T
 DIIS: error= 7.64D-03 at cycle   2 NSaved=   2.
 NSaved= 2 IEnMin= 2 EnMin= -544.056458089117     IErMin= 2 ErrMin= 7.64D-03
 ErrMax= 7.64D-03  0.00D+00 EMaxC= 1.00D-01 BMatC= 1.31D-02 BMatP= 3.56D-01
 IDIUse=3 WtCom= 9.24D-01 WtEn= 7.64D-02
 Coeff-Com: -0.316D-01 0.103D+01
 Coeff-En:   0.000D+00 0.100D+01
 Coeff:     -0.292D-01 0.103D+01
 Gap=     0.107 Goal=   None    Shift=    0.000
 RMSDP=9.24D-04 MaxDP=1.42D-02 DE=-2.06D-01 OVMax= 8.71D-02

 Cycle   3  Pass 0  IDiag  1:
 RMSU=  9.02D-04    CP:  9.65D-01  9.43D-01
 E= -544.259780662649     Delta-E=       -0.203322573532 Rises=F Damp=F
 DIIS: error= 2.36D-03 at cycle   3 NSaved=   3.
 NSaved= 3 IEnMin= 3 EnMin= -544.259780662649     IErMin= 3 ErrMin= 2.36D-03
 ErrMax= 2.36D-03  0.00D+00 EMaxC= 1.00D-01 BMatC= 1.26D-03 BMatP= 1.31D-02
 IDIUse=3 WtCom= 9.76D-01 WtEn= 2.36D-02
 Coeff-Com: -0.278D-01 0.181D+00 0.847D+00
 Coeff-En:   0.000D+00 0.000D+00 0.100D+01
 Coeff:     -0.272D-01 0.176D+00 0.851D+00
 Gap=     0.108 Goal=   None    Shift=    0.000
 RMSDP=2.18D-04 MaxDP=7.78D-03 DE=-2.03D-01 OVMax= 1.09D-02

 Cycle   4  Pass 0  IDiag  1:
 RMSU=  2.04D-04    CP:  9.64D-01  9.58D-01  9.26D-01
 E= -544.260465305071     Delta-E=       -0.000684642422 Rises=F Damp=F
 DIIS: error= 1.14D-03 at cycle   4 NSaved=   4.
 NSaved= 4 IEnMin= 4 EnMin= -544.260465305071     IErMin= 4 ErrMin= 1.14D-03
 ErrMax= 1.14D-03  0.00D+00 EMaxC= 1.00D-01 BMatC= 5.76D-04 BMatP= 1.26D-03
 IDIUse=3 WtCom= 9.89D-01 WtEn= 1.14D-02
 Coeff-Com: -0.111D-01 0.384D-01 0.434D+00 0.539D+00
 Coeff-En:   0.000D+00 0.000D+00 0.297D+00 0.703D+00
 Coeff:     -0.109D-01 0.379D-01 0.432D+00 0.541D+00
 Gap=     0.108 Goal=   None    Shift=    0.000
 RMSDP=1.03D-04 MaxDP=3.15D-03 DE=-6.85D-04 OVMax= 5.78D-03

 Cycle   5  Pass 0  IDiag  1:
 RMSU=  5.02D-05    CP:  9.64D-01  9.63D-01  9.42D-01  5.71D-01
 E= -544.261016150959     Delta-E=       -0.000550845888 Rises=F Damp=F
 DIIS: error= 3.49D-04 at cycle   5 NSaved=   5.
 NSaved= 5 IEnMin= 5 EnMin= -544.261016150959     IErMin= 5 ErrMin= 3.49D-04
 ErrMax= 3.49D-04  0.00D+00 EMaxC= 1.00D-01 BMatC= 2.52D-05 BMatP= 5.76D-04
 IDIUse=3 WtCom= 9.97D-01 WtEn= 3.49D-03
 Coeff-Com: -0.384D-02 0.976D-02 0.172D+00 0.263D+00 0.559D+00
 Coeff-En:   0.000D+00 0.000D+00 0.000D+00 0.000D+00 0.100D+01
 Coeff:     -0.383D-02 0.972D-02 0.172D+00 0.262D+00 0.560D+00
 Gap=     0.108 Goal=   None    Shift=    0.000
 RMSDP=2.85D-05 MaxDP=1.06D-03 DE=-5.51D-04 OVMax= 2.14D-03

 Cycle   6  Pass 0  IDiag  1:
 RMSU=  2.16D-05    CP:  9.64D-01  9.63D-01  9.43D-01  5.99D-01  6.48D-01
 E= -544.261034396188     Delta-E=       -0.000018245229 Rises=F Damp=F
 DIIS: error= 2.25D-04 at cycle   6 NSaved=   6.
 NSaved= 6 IEnMin= 6 EnMin= -544.261034396188     IErMin= 6 ErrMin= 2.25D-04
 ErrMax= 2.25D-04  0.00D+00 EMaxC= 1.00D-01 BMatC= 7.00D-06 BMatP= 2.52D-05
 IDIUse=3 WtCom= 9.98D-01 WtEn= 2.25D-03
 Coeff-Com: -0.992D-03 0.126D-02 0.544D-01 0.100D+00 0.374D+00 0.471D+00
 Coeff-En:   0.000D+00 0.000D+00 0.000D+00 0.000D+00 0.251D+00 0.749D+00
 Coeff:     -0.990D-03 0.125D-02 0.543D-01 0.999D-01 0.374D+00 0.472D+00
 Gap=     0.108 Goal=   None    Shift=    0.000
 RMSDP=1.24D-05 MaxDP=3.48D-04 DE=-1.82D-05 OVMax= 9.14D-04

 Cycle   7  Pass 0  IDiag  1:
 RMSU=  4.32D-06    CP:  9.64D-01  9.62D-01  9.45D-01  6.00D-01  7.25D-01
                    CP:  5.11D-01
 E= -544.261042111985     Delta-E=       -0.000007715797 Rises=F Damp=F
 DIIS: error= 2.21D-05 at cycle   7 NSaved=   7.
 NSaved= 7 IEnMin= 7 EnMin= -544.261042111985     IErMin= 7 ErrMin= 2.21D-05
 ErrMax= 2.21D-05  0.00D+00 EMaxC= 1.00D-01 BMatC= 8.47D-08 BMatP= 7.00D-06
 IDIUse=1 WtCom= 1.00D+00 WtEn= 0.00D+00
 Coeff-Com: -0.167D-03-0.718D-04 0.118D-01 0.238D-01 0.108D+00 0.172D+00
 Coeff-Com:  0.684D+00
 Coeff:     -0.167D-03-0.718D-04 0.118D-01 0.238D-01 0.108D+00 0.172D+00
 Coeff:      0.684D+00
 Gap=     0.108 Goal=   None    Shift=    0.000
 RMSDP=1.98D-06 MaxDP=6.99D-05 DE=-7.72D-06 OVMax= 1.86D-04

 Initial convergence to 1.0D-05 achieved.  Increase integral accuracy.
 Cycle   8  Pass 1  IDiag  1:
 E= -544.261098111137     Delta-E=       -0.000055999152 Rises=F Damp=F
 DIIS: error= 2.95D-05 at cycle   1 NSaved=   1.
 NSaved= 1 IEnMin= 1 EnMin= -544.261098111137     IErMin= 1 ErrMin= 2.95D-05
 ErrMax= 2.95D-05  0.00D+00 EMaxC= 1.00D-01 BMatC= 1.36D-07 BMatP= 1.36D-07
 IDIUse=1 WtCom= 1.00D+00 WtEn= 0.00D+00
 Coeff-Com:  0.100D+01
 Coeff:      0.100D+01
 Gap=     0.108 Goal=   None    Shift=    0.000
 RMSDP=1.98D-06 MaxDP=6.99D-05 DE=-5.60D-05 OVMax= 2.03D-04

 Cycle   9  Pass 1  IDiag  1:
 RMSU=  9.88D-06    CP:  1.00D+00
 E= -544.261098076293     Delta-E=        0.000000034844 Rises=F Damp=F
 DIIS: error= 2.50D-05 at cycle   2 NSaved=   2.
 NSaved= 2 IEnMin= 1 EnMin= -544.261098111137     IErMin= 2 ErrMin= 2.50D-05
 ErrMax= 2.50D-05  0.00D+00 EMaxC= 1.00D-01 BMatC= 1.33D-07 BMatP= 1.36D-07
 IDIUse=1 WtCom= 1.00D+00 WtEn= 0.00D+00
 Coeff-Com:  0.496D+00 0.504D+00
 Coeff:      0.496D+00 0.504D+00
 Gap=     0.108 Goal=   None    Shift=    0.000
 RMSDP=2.41D-06 MaxDP=1.05D-04 DE= 3.48D-08 OVMax= 2.40D-04

 Cycle  10  Pass 1  IDiag  1:
 RMSU=  2.36D-06    CP:  1.00D+00  9.52D-01
 E= -544.261098179997     Delta-E=       -0.000000103705 Rises=F Damp=F
 DIIS: error= 1.64D-05 at cycle   3 NSaved=   3.
 NSaved= 3 IEnMin= 3 EnMin= -544.261098179997     IErMin= 3 ErrMin= 1.64D-05
 ErrMax= 1.64D-05  0.00D+00 EMaxC= 1.00D-01 BMatC= 3.84D-08 BMatP= 1.33D-07
 IDIUse=1 WtCom= 1.00D+00 WtEn= 0.00D+00
 Coeff-Com:  0.208D-01 0.346D+00 0.633D+00
 Coeff:      0.208D-01 0.346D+00 0.633D+00
 Gap=     0.108 Goal=   None    Shift=    0.000
 RMSDP=1.06D-06 MaxDP=4.14D-05 DE=-1.04D-07 OVMax= 1.15D-04

 Cycle  11  Pass 1  IDiag  1:
 RMSU=  4.29D-07    CP:  1.00D+00  9.81D-01  6.08D-01
 E= -544.261098221713     Delta-E=       -0.000000041716 Rises=F Damp=F
 DIIS: error= 5.18D-06 at cycle   4 NSaved=   4.
 NSaved= 4 IEnMin= 4 EnMin= -544.261098221713     IErMin= 4 ErrMin= 5.18D-06
 ErrMax= 5.18D-06  0.00D+00 EMaxC= 1.00D-01 BMatC= 3.44D-09 BMatP= 3.84D-08
 IDIUse=1 WtCom= 1.00D+00 WtEn= 0.00D+00
 Coeff-Com: -0.412D-02 0.208D+00 0.416D+00 0.380D+00
 Coeff:     -0.412D-02 0.208D+00 0.416D+00 0.380D+00
 Gap=     0.108 Goal=   None    Shift=    0.000
 RMSDP=2.91D-07 MaxDP=8.38D-06 DE=-4.17D-08 OVMax= 2.92D-05

 Cycle  12  Pass 1  IDiag  1:
 RMSU=  7.11D-08    CP:  1.00D+00  9.80D-01  6.50D-01  3.85D-01
 E= -544.261098225786     Delta-E=       -0.000000004073 Rises=F Damp=F
 DIIS: error= 5.48D-07 at cycle   5 NSaved=   5.
 NSaved= 5 IEnMin= 5 EnMin= -544.261098225786     IErMin= 5 ErrMin= 5.48D-07
 ErrMax= 5.48D-07  0.00D+00 EMaxC= 1.00D-01 BMatC= 6.73D-11 BMatP= 3.44D-09
 IDIUse=1 WtCom= 1.00D+00 WtEn= 0.00D+00
 Coeff-Com: -0.311D-02 0.112D+00 0.226D+00 0.221D+00 0.445D+00
 Coeff:     -0.311D-02 0.112D+00 0.226D+00 0.221D+00 0.445D+00
 Gap=     0.108 Goal=   None    Shift=    0.000
 RMSDP=3.31D-08 MaxDP=1.28D-06 DE=-4.07D-09 OVMax= 2.68D-06

 Cycle  13  Pass 1  IDiag  1:
 RMSU=  2.19D-08    CP:  1.00D+00  9.80D-01  6.51D-01  4.13D-01  6.93D-01
 E= -544.261098225880     Delta-E=       -0.000000000094 Rises=F Damp=F
 DIIS: error= 7.69D-08 at cycle   6 NSaved=   6.
 NSaved= 6 IEnMin= 6 EnMin= -544.261098225880     IErMin= 6 ErrMin= 7.69D-08
 ErrMax= 7.69D-08  0.00D+00 EMaxC= 1.00D-01 BMatC= 1.32D-12 BMatP= 6.73D-11
 IDIUse=1 WtCom= 1.00D+00 WtEn= 0.00D+00
 Coeff-Com: -0.499D-03 0.127D-01 0.263D-01 0.272D-01 0.141D+00 0.793D+00
 Coeff:     -0.499D-03 0.127D-01 0.263D-01 0.272D-01 0.141D+00 0.793D+00
 Gap=     0.108 Goal=   None    Shift=    0.000
 RMSDP=7.82D-09 MaxDP=2.64D-07 DE=-9.39D-11 OVMax= 7.57D-07

 SCF Done:  E(RB3LYP) =  -544.261098226     A.U. after   13 cycles
            NFock= 13  Conv=0.78D-08     -V/T= 2.0102
 KE= 5.387762099511D+02 PE=-2.619121221721D+03 EE= 8.556612655713D+02
 Leave Link  502 at Mon Jun  7 10:26:04 2021, MaxMem=    33554432 cpu:        52.2
 (Enter /opt/app/gaussian09/e01/g09/l801.exe)
 DoSCS=F DFT=T ScalE2(SS,OS)=  1.000000  1.000000
 ExpMin= 1.61D-01 ExpMax= 3.05D+03 ExpMxC= 4.57D+02 IAcc=3 IRadAn=         5 AccDes= 0.00D+00
 HarFok:  IExCor=  205 AccDes= 0.00D+00 IRadAn=         5 IDoV=-2 UseB2=F ITyADJ=14
 ICtDFT= 12500011 ScaDFX=  1.000000  1.000000  1.000000  1.000000
 Largest valence mixing into a core orbital is  5.38D-05
 Largest core mixing into a valence orbital is  1.13D-05
 Range of M.O.s used for correlation:    15   246
 NBasis=   246 NAE=    51 NBE=    51 NFC=    14 NFV=     0
 NROrb=    232 NOA=    37 NOB=    37 NVA=   195 NVB=   195
 Leave Link  801 at Mon Jun  7 10:26:05 2021, MaxMem=    33554432 cpu:         1.2
 (Enter /opt/app/gaussian09/e01/g09/l914.exe)
 RHF ground state
 MDV=    33554432 DFT=T DoStab=F Mixed=T DoRPA=T DoScal=F NonHer=T
 Would need an additional           889600000 words for in-memory AO integral storage.
 Making orbital integer symmetry assigments:
 Orbital symmetries:
       Occupied  (B) (A) (A) (B) (A) (B) (A) (B) (A) (B) (B) (A)
                 (B) (A) (A) (B) (A) (B) (A) (B) (A) (B) (A) (B)
                 (B) (A) (B) (A) (B) (A) (A) (B) (B) (A) (A) (B)
                 (A) (B) (B) (A) (A) (B) (A) (A) (B) (A) (B) (A)
                 (B) (A) (B)
       Virtual   (A) (B) (A) (B) (B) (A) (A) (B) (B) (A) (B) (A)
                 (A) (B) (B) (A) (A) (B) (A) (B) (B) (A) (B) (A)
                 (B) (A) (B) (A) (B) (A) (A) (B) (B) (A) (B) (B)
                 (A) (B) (A) (A) (B) (A) (B) (A) (B) (A) (B) (A)
                 (A) (B) (B) (B) (A) (A) (B) (B) (A) (A) (B) (B)
                 (A) (B) (A) (A) (B) (A) (B) (B) (A) (A) (B) (A)
                 (B) (A) (B) (A) (B) (B) (A) (B) (A) (B) (A) (B)
                 (A) (B) (A) (A) (B) (A) (B) (B) (A) (A) (B) (B)
                 (A) (A) (B) (B) (A) (B) (A) (A) (A) (B) (A) (B)
                 (B) (A) (B) (A) (B) (A) (A) (B) (B) (B) (A) (A)
                 (B) (A) (B) (A) (A) (B) (A) (A) (B) (A) (B) (B)
                 (B) (A) (B) (A) (B) (A) (A) (B) (A) (B) (B) (A)
                 (B) (A) (B) (A) (B) (A) (B) (A) (B) (A) (A) (B)
                 (B) (A) (B) (A) (A) (B) (B) (B) (A) (A) (B) (A)
                 (B) (A) (B) (A) (B) (A) (B) (A) (B) (B) (A) (A)
                 (B) (A) (B) (A) (B) (A) (B) (A) (B) (A) (B) (A)
                 (B) (A) (B)
    12 initial guesses have been made.
 Convergence on wavefunction:    0.001000000000000
 Davidson Disk Diagonalization:  ConvIn= 1.00D-03 SkipCon=T Conv= 1.00D-03.
 Max sub-space:   200 roots to seek:    12 dimension of matrix:        14430
 Iteration     1 Dimension    12 NMult     0 NNew     12
 CISAX will form    12 AO SS matrices at one time.
 NMat=    12 NSing=    12 JSym2X=-1.
 FoFJK:  IHMeth= 1 ICntrl=       0 DoSepK=F KAlg= 0 I1Cent=   0 FoldK=F
 IRaf=         0 NMat=  24 IRICut=      30 DoRegI=T DoRafI=T ISym2E=-1.
 FoFCou: FMM=F IPFlag=           0 FMFlag=      100000 FMFlg1=           0
         NFxFlg=           0 DoJE=F BraDBF=F KetDBF=F FulRan=T
         wScrn=  0.000000 ICntrl=       0 IOpCl=  0 I1Cent=           0 NGrid=           0
         NMat0=   24 NMatS0=     12 NMatT0=    0 NMatD0=   24 NMtDS0=    0 NMtDT0=    0
 Petite list used in FoFCou.
 New state      3 was old state      4
 Excitation Energies [eV] at current iteration:
 Root      1 :     3.566900311893868
 Root      2 :     3.751580297634324
 Root      3 :     4.960908249643328
 Root      4 :     5.604885074328162
 Root      5 :     5.630159916111679
 Root      6 :     5.956525648401640
 Root      7 :     6.422118145090061
 Root      8 :     6.453856805034402
 Root      9 :     6.894868105711430
 Root     10 :     7.151601740958583
 Root     11 :     7.594440001897598
 Root     12 :     8.706177931560244
 Iteration     2 Dimension    18 NMult    12 NNew      6
 CISAX will form     6 AO SS matrices at one time.
 NMat=     6 NSing=     6 JSym2X=-1.
 Root      1 not converged, maximum delta is    0.073408621532865
 Root      2 not converged, maximum delta is    0.018985960577761
 Root      3 not converged, maximum delta is    0.061873685931359
 Excitation Energies [eV] at current iteration:
 Root      1 :     3.172136655721171   Change is   -0.394763656172696
 Root      2 :     3.729053602338419   Change is   -0.022526695295906
 Root      3 :     4.899434242271374   Change is   -0.061474007371954
 Iteration     3 Dimension    24 NMult    18 NNew      6
 CISAX will form     6 AO SS matrices at one time.
 NMat=     6 NSing=     6 JSym2X=-1.
 Root      1 not converged, maximum delta is    0.007179654955817
 Root      2 not converged, maximum delta is    0.001623170057586
 Root      3 not converged, maximum delta is    0.008851763665858
 Excitation Energies [eV] at current iteration:
 Root      1 :     3.156946611712543   Change is   -0.015190044008628
 Root      2 :     3.728322166925779   Change is   -0.000731435412640
 Root      3 :     4.896610263450774   Change is   -0.002823978820600
 Iteration     4 Dimension    30 NMult    24 NNew      6
 CISAX will form     6 AO SS matrices at one time.
 NMat=     6 NSing=     6 JSym2X=-1.
 Root      1 not converged, maximum delta is    0.001110244162913
 Root      2 has converged.
 Root      3 not converged, maximum delta is    0.005219731771208
 Excitation Energies [eV] at current iteration:
 Root      1 :     3.156651104694436   Change is   -0.000295507018106
 Root      2 :     3.728250949823283   Change is   -0.000071217102496
 Root      3 :     4.895975112360460   Change is   -0.000635151090314
 Iteration     5 Dimension    34 NMult    30 NNew      4
 CISAX will form     4 AO SS matrices at one time.
 NMat=     4 NSing=     4 JSym2X=-1.
 Root      1 has converged.
 Root      2 has converged.
 Root      3 has converged.
 Excitation Energies [eV] at current iteration:
 Root      1 :     3.156628934862937   Change is   -0.000022169831499
 Root      2 :     3.728250949823350   Change is    0.000000000000066
 Root      3 :     4.895930747240335   Change is   -0.000044365120125
 Convergence achieved on expansion vectors.
 ***********************************************************************
 Excited states from <AA,BB:AA,BB> singles matrix:
 ***********************************************************************
 
 1PDM for each excited state written to RWF  633
 Ground to excited state transition densities written to RWF  633
 Ground to excited state transition electric dipole moments (Au):
       state          X           Y           Z        Dip. S.      Osc.
         1         0.5975     -5.6755      0.0000     32.5680      2.5187
         2        -0.0000      0.0000     -0.0001      0.0000      0.0000
         3         0.1099     -0.1825      0.0000      0.0454      0.0054
 Ground to excited state transition velocity dipole moments (Au):
       state          X           Y           Z        Dip. S.      Osc.
         1        -0.0707      0.6342     -0.0000      0.4072      2.3399
         2         0.0000     -0.0000      0.0000      0.0000      0.0000
         3        -0.0191      0.0324     -0.0000      0.0014      0.0052
 Ground to excited state transition magnetic dipole moments (Au):
       state          X           Y           Z
         1         0.0010     -0.0000     -0.0000
         2        -0.0000     -0.0000     -0.1122
         3         0.0001     -0.0000     -0.0000
 Ground to excited state transition velocity quadrupole moments (Au):
       state          XX          YY          ZZ          XY          XZ          YZ
         1        -0.0000     -0.0000     -0.0000      0.0000     -0.0000      0.0005
         2         0.0039      0.8089     -0.0066     -0.0484      0.0000     -0.0000
         3        -0.0000     -0.0000     -0.0000      0.0000      0.0000     -0.0001
 <0|del|b> * <b|rxdel|0> + <0|del|b> * <b|delr+rdel|0>
 Rotatory Strengths (R) in cgs (10**-40 erg-esu-cm/Gauss)
       state          XX          YY          ZZ    R(velocity)    E-M Angle
         1        -0.0027     -0.3242     -0.2607     -0.1959       90.00
         2        -0.0026     -0.0010     -0.0000     -0.0012       90.00
         3        -0.0020     -0.0004     -0.0065     -0.0029       90.00
 1/2[<0|r|b>*<b|rxdel|0> + (<0|rxdel|b>*<b|r|0>)*]
 Rotatory Strengths (R) in cgs (10**-40 erg-esu-cm/Gauss)
       state          XX          YY          ZZ     R(length)
         1        -0.4173     -0.1680      0.0000     -0.1951
         2        -0.0000      0.0000     -0.0049     -0.0016
         3        -0.0066     -0.0025      0.0000     -0.0030
  1/2[<0|del|b>*<b|r|0> + (<0|r|b>*<b|del|0>)*] (Au)
       state          X           Y           Z        Dip. S.   Osc.(frdel)
         1        -0.0423     -3.5991     -0.0000      3.6414      2.4276
         2        -0.0000     -0.0000     -0.0000      0.0000      0.0000
         3        -0.0021     -0.0059     -0.0000      0.0080      0.0053

 Excitation energies and oscillator strengths:
 
 Excited State   1:      Singlet-B      3.1566 eV  392.77 nm  f=2.5187  <S**2>=0.000
      51 -> 52         0.71575
      51 <- 52        -0.12804
 This state for optimization and/or second-order correction.
 Total Energy, E(TD-HF/TD-KS) =  -544.145094242    
 Copying the excited state density for this state as the 1-particle RhoCI density.
 
 Excited State   2:      Singlet-A      3.7283 eV  332.55 nm  f=0.0000  <S**2>=0.000
      50 -> 52         0.54207
      51 -> 53         0.44895
 
 Excited State   3:      Singlet-B      4.8959 eV  253.24 nm  f=0.0054  <S**2>=0.000
      49 -> 52         0.60148
      51 -> 54         0.35220
 SavETr:  write IOETrn=   770 NScale= 10 NData=  16 NLR=1 NState=    3 LETran=      64.
 Leave Link  914 at Mon Jun  7 10:28:18 2021, MaxMem=    33554432 cpu:       132.2
 (Enter /opt/app/gaussian09/e01/g09/l601.exe)
 Copying SCF densities to generalized density rwf, IOpCl= 0 IROHF=0.

 **********************************************************************

            Population analysis using the SCF density.

 **********************************************************************

 Orbital symmetries:
       Occupied  (B) (A) (A) (B) (A) (B) (A) (B) (A) (B) (B) (A)
                 (B) (A) (A) (B) (A) (B) (A) (B) (A) (B) (A) (B)
                 (B) (A) (B) (A) (B) (A) (A) (B) (B) (A) (A) (B)
                 (A) (B) (B) (A) (A) (B) (A) (A) (B) (A) (B) (A)
                 (B) (A) (B)
       Virtual   (A) (B) (A) (B) (B) (A) (A) (B) (B) (A) (B) (A)
                 (A) (B) (B) (A) (A) (B) (A) (B) (B) (A) (B) (A)
                 (B) (A) (B) (A) (B) (A) (A) (B) (B) (A) (B) (B)
                 (A) (B) (A) (A) (B) (A) (B) (A) (B) (A) (B) (A)
                 (A) (B) (B) (B) (A) (A) (B) (B) (A) (A) (B) (B)
                 (A) (B) (A) (A) (B) (A) (B) (B) (A) (A) (B) (A)
                 (B) (A) (B) (A) (B) (B) (A) (B) (A) (B) (A) (B)
                 (A) (B) (A) (A) (B) (A) (B) (B) (A) (A) (B) (B)
                 (A) (A) (B) (B) (A) (B) (A) (A) (A) (B) (A) (B)
                 (B) (A) (B) (A) (B) (A) (A) (B) (B) (B) (A) (A)
                 (B) (A) (B) (A) (A) (B) (A) (A) (B) (A) (B) (B)
                 (B) (A) (B) (A) (B) (A) (A) (B) (A) (B) (B) (A)
                 (B) (A) (B) (A) (B) (A) (B) (A) (B) (A) (A) (B)
                 (B) (A) (B) (A) (A) (B) (B) (B) (A) (A) (B) (A)
                 (B) (A) (B) (A) (B) (A) (B) (A) (B) (B) (A) (A)
                 (B) (A) (B) (A) (B) (A) (B) (A) (B) (A) (B) (A)
                 (B) (A) (B)
 The electronic state is 1-A.
 Alpha  occ. eigenvalues --  -10.18988 -10.18988 -10.18823 -10.18814 -10.18806
 Alpha  occ. eigenvalues --  -10.18804 -10.18750 -10.18720 -10.18669 -10.18669
 Alpha  occ. eigenvalues --  -10.18469 -10.18469 -10.18384 -10.18384  -0.82365
 Alpha  occ. eigenvalues --   -0.81409  -0.79947  -0.77984  -0.75519  -0.72555
 Alpha  occ. eigenvalues --   -0.69103  -0.66534  -0.61450  -0.57096  -0.56110
 Alpha  occ. eigenvalues --   -0.55400  -0.54327  -0.54172  -0.47724  -0.47687
 Alpha  occ. eigenvalues --   -0.45548  -0.44485  -0.42633  -0.41349  -0.41147
 Alpha  occ. eigenvalues --   -0.41146  -0.39631  -0.38829  -0.37073  -0.36962
 Alpha  occ. eigenvalues --   -0.36223  -0.35696  -0.34990  -0.34515  -0.34431
 Alpha  occ. eigenvalues --   -0.34026  -0.32745  -0.30003  -0.26403  -0.22074
 Alpha  occ. eigenvalues --   -0.17353
 Alpha virt. eigenvalues --   -0.06571  -0.01044   0.04158   0.08256   0.09073
 Alpha virt. eigenvalues --    0.10344   0.10679   0.11535   0.11729   0.11753
 Alpha virt. eigenvalues --    0.12351   0.14837   0.14903   0.15133   0.15625
 Alpha virt. eigenvalues --    0.16190   0.16441   0.17016   0.17258   0.17262
 Alpha virt. eigenvalues --    0.18090   0.18571   0.20472   0.20830   0.24654
 Alpha virt. eigenvalues --    0.25646   0.29128   0.33199   0.33377   0.34802
 Alpha virt. eigenvalues --    0.37791   0.38176   0.39306   0.41293   0.42026
 Alpha virt. eigenvalues --    0.43075   0.43213   0.48246   0.48287   0.52117
 Alpha virt. eigenvalues --    0.52692   0.53827   0.55488   0.55549   0.55898
 Alpha virt. eigenvalues --    0.57760   0.58247   0.58556   0.59407   0.59489
 Alpha virt. eigenvalues --    0.59771   0.60736   0.61339   0.61353   0.61784
 Alpha virt. eigenvalues --    0.63251   0.63752   0.65413   0.65794   0.66688
 Alpha virt. eigenvalues --    0.66814   0.71357   0.71379   0.73012   0.73022
 Alpha virt. eigenvalues --    0.75635   0.75813   0.77525   0.77537   0.81992
 Alpha virt. eigenvalues --    0.83317   0.85452   0.86138   0.86750   0.87536
 Alpha virt. eigenvalues --    0.87586   0.87612   0.87960   0.88685   0.89705
 Alpha virt. eigenvalues --    0.89974   0.90300   0.90318   0.91666   0.91833
 Alpha virt. eigenvalues --    0.93701   0.94574   0.95380   0.95462   0.99504
 Alpha virt. eigenvalues --    0.99789   1.03857   1.04237   1.05771   1.08094
 Alpha virt. eigenvalues --    1.08962   1.11453   1.13679   1.16209   1.19464
 Alpha virt. eigenvalues --    1.20929   1.27096   1.27377   1.31921   1.32659
 Alpha virt. eigenvalues --    1.32682   1.33080   1.34189   1.34793   1.35383
 Alpha virt. eigenvalues --    1.36653   1.36667   1.40487   1.40945   1.43422
 Alpha virt. eigenvalues --    1.46374   1.49195   1.53783   1.54060   1.54620
 Alpha virt. eigenvalues --    1.60198   1.65670   1.70533   1.74018   1.77003
 Alpha virt. eigenvalues --    1.77321   1.82644   1.83615   1.84331   1.87273
 Alpha virt. eigenvalues --    1.88377   1.88599   1.90857   1.91052   1.91973
 Alpha virt. eigenvalues --    1.92497   1.95812   1.97269   1.99247   2.00263
 Alpha virt. eigenvalues --    2.02436   2.02664   2.10333   2.11455   2.14039
 Alpha virt. eigenvalues --    2.15283   2.16067   2.18748   2.20547   2.23282
 Alpha virt. eigenvalues --    2.26635   2.28161   2.29575   2.29758   2.32287
 Alpha virt. eigenvalues --    2.35226   2.35577   2.35847   2.38345   2.39899
 Alpha virt. eigenvalues --    2.43655   2.45438   2.47250   2.48739   2.49594
 Alpha virt. eigenvalues --    2.51778   2.51918   2.58023   2.62994   2.79761
 Alpha virt. eigenvalues --    2.81662   2.88643   2.89849   2.93396   2.93827
 Alpha virt. eigenvalues --    2.94705   2.97433   3.05331   3.06041   3.12595
 Alpha virt. eigenvalues --    3.12764   4.09498   4.09814   4.10588   4.11828
 Alpha virt. eigenvalues --    4.13735   4.16262   4.18671   4.25914   4.29989
 Alpha virt. eigenvalues --    4.34226   4.39471   4.45640   4.51677   4.56189
     Molecular Orbital Coefficients:
                           1         2         3         4         5
                           O         O         O         O         O
     Eigenvalues --   -10.18988 -10.18988 -10.18823 -10.18814 -10.18806
   1 1   C  1S         -0.00001  -0.00003   0.52991   0.50595  -0.12501
   2        2S          0.00003  -0.00004   0.02615   0.02507  -0.00625
   3        2PX        -0.00000   0.00000  -0.00001  -0.00001   0.00001
   4        2PY         0.00000   0.00000  -0.00016  -0.00003   0.00011
   5        2PZ         0.00000   0.00000  -0.00000   0.00000   0.00000
   6        3S         -0.00039   0.00058  -0.00605  -0.00613   0.00203
   7        3PX         0.00016  -0.00024   0.00117   0.00099  -0.00021
   8        3PY         0.00027  -0.00022   0.00124  -0.00016  -0.00089
   9        3PZ         0.00000  -0.00000   0.00000   0.00000  -0.00000
  10        4XX         0.00000  -0.00000  -0.00511  -0.00487   0.00118
  11        4YY        -0.00001   0.00001  -0.00499  -0.00477   0.00115
  12        4ZZ         0.00001  -0.00001  -0.00519  -0.00492   0.00119
  13        4XY        -0.00001   0.00001  -0.00004  -0.00003  -0.00002
  14        4XZ        -0.00000   0.00000   0.00000   0.00000   0.00000
  15        4YZ        -0.00000  -0.00000  -0.00000  -0.00000  -0.00000
  16 2   H  1S          0.00000  -0.00000  -0.00028  -0.00020   0.00004
  17        2S         -0.00006   0.00007   0.00061   0.00062  -0.00028
  18 3   C  1S         -0.00003  -0.00001   0.41189   0.23022  -0.15215
  19        2S         -0.00001  -0.00000   0.02007   0.01134  -0.00751
  20        2PX         0.00000   0.00000  -0.00010  -0.00004   0.00003
  21        2PY        -0.00001   0.00000   0.00009   0.00028   0.00002
  22        2PZ        -0.00000  -0.00000  -0.00000  -0.00000   0.00000
  23        3S          0.00007  -0.00011  -0.00145  -0.00231   0.00125
  24        3PX        -0.00004  -0.00002  -0.00053  -0.00034   0.00022
  25        3PY         0.00009   0.00011  -0.00050  -0.00245  -0.00023
  26        3PZ         0.00000   0.00000  -0.00000   0.00000   0.00000
  27        4XX        -0.00000   0.00000  -0.00414  -0.00225   0.00151
  28        4YY         0.00001  -0.00001  -0.00405  -0.00219   0.00151
  29        4ZZ         0.00000  -0.00001  -0.00411  -0.00225   0.00149
  30        4XY         0.00001   0.00000  -0.00005   0.00004   0.00002
  31        4XZ        -0.00000   0.00000   0.00000  -0.00000   0.00000
  32        4YZ         0.00000   0.00000   0.00000  -0.00000   0.00000
  33 4   H  1S         -0.00000  -0.00000  -0.00027  -0.00012   0.00004
  34        2S         -0.00002   0.00002   0.00024   0.00031  -0.00007
  35 5   C  1S          0.00003  -0.00001   0.41189  -0.23022  -0.15215
  36        2S          0.00001  -0.00000   0.02007  -0.01134  -0.00751
  37        2PX         0.00000  -0.00000   0.00010  -0.00004  -0.00003
  38        2PY        -0.00001  -0.00000  -0.00009   0.00028  -0.00002
  39        2PZ         0.00000  -0.00000  -0.00000   0.00000   0.00000
  40        3S         -0.00007  -0.00011  -0.00145   0.00231   0.00125
  41        3PX        -0.00004   0.00002   0.00053  -0.00034  -0.00022
  42        3PY         0.00009  -0.00011   0.00050  -0.00245   0.00023
  43        3PZ        -0.00000   0.00000  -0.00000  -0.00000   0.00000
  44        4XX         0.00000   0.00000  -0.00414   0.00225   0.00151
  45        4YY        -0.00001  -0.00001  -0.00405   0.00219   0.00151
  46        4ZZ        -0.00000  -0.00001  -0.00411   0.00225   0.00149
  47        4XY        -0.00001   0.00000  -0.00005  -0.00004   0.00002
  48        4XZ        -0.00000  -0.00000  -0.00000  -0.00000  -0.00000
  49        4YZ         0.00000  -0.00000  -0.00000  -0.00000  -0.00000
  50 6   H  1S          0.00000  -0.00000  -0.00027   0.00012   0.00004
  51        2S          0.00002   0.00002   0.00024  -0.00031  -0.00007
  52 7   C  1S          0.00001  -0.00003   0.52991  -0.50595  -0.12501
  53        2S         -0.00003  -0.00004   0.02615  -0.02507  -0.00625
  54        2PX        -0.00000  -0.00000   0.00001  -0.00001  -0.00001
  55        2PY         0.00000  -0.00000   0.00016  -0.00003  -0.00011
  56        2PZ        -0.00000   0.00000  -0.00000  -0.00000   0.00000
  57        3S          0.00039   0.00058  -0.00605   0.00613   0.00203
  58        3PX         0.00016   0.00024  -0.00117   0.00099   0.00021
  59        3PY         0.00027   0.00022  -0.00124  -0.00016   0.00089
  60        3PZ        -0.00000  -0.00000   0.00000  -0.00000  -0.00000
  61        4XX        -0.00000  -0.00000  -0.00511   0.00487   0.00118
  62        4YY         0.00001   0.00001  -0.00499   0.00477   0.00115
  63        4ZZ        -0.00001  -0.00001  -0.00519   0.00492   0.00119
  64        4XY         0.00001   0.00001  -0.00004   0.00003  -0.00002
  65        4XZ        -0.00000  -0.00000  -0.00000   0.00000  -0.00000
  66        4YZ        -0.00000   0.00000   0.00000  -0.00000   0.00000
  67 8   H  1S         -0.00000  -0.00000  -0.00028   0.00020   0.00004
  68        2S          0.00006   0.00007   0.00061  -0.00062  -0.00028
  69 9   C  1S          0.00052   0.00052   0.11980  -0.18494   0.17097
  70        2S          0.00001   0.00001   0.00564  -0.00884   0.00823
  71        2PX        -0.00000  -0.00001   0.00009  -0.00014   0.00010
  72        2PY        -0.00003  -0.00003   0.00011  -0.00001  -0.00028
  73        2PZ        -0.00000  -0.00000  -0.00000   0.00000  -0.00000
  74        3S         -0.00003  -0.00012   0.00216  -0.00183   0.00041
  75        3PX         0.00011   0.00013  -0.00007   0.00002  -0.00009
  76        3PY         0.00059   0.00058  -0.00132  -0.00015   0.00214
  77        3PZ         0.00000   0.00000  -0.00000  -0.00000   0.00000
  78        4XX        -0.00001  -0.00001  -0.00134   0.00201  -0.00177
  79        4YY         0.00000  -0.00000  -0.00133   0.00200  -0.00171
  80        4ZZ        -0.00001  -0.00001  -0.00127   0.00191  -0.00172
  81        4XY        -0.00001  -0.00001  -0.00007   0.00007   0.00006
  82        4XZ        -0.00000  -0.00000   0.00000  -0.00000   0.00000
  83        4YZ         0.00000   0.00000   0.00000  -0.00000  -0.00000
  84 10  H  1S         -0.00004  -0.00004  -0.00015   0.00015  -0.00011
  85        2S          0.00002   0.00002  -0.00007   0.00012   0.00010
  86 11  C  1S          0.00493   0.00492   0.16614  -0.38595   0.65063
  87        2S          0.00018   0.00018   0.00818  -0.01914   0.03237
  88        2PX         0.00001   0.00001   0.00002  -0.00005   0.00007
  89        2PY        -0.00002  -0.00002   0.00007  -0.00009   0.00009
  90        2PZ        -0.00000  -0.00000  -0.00000   0.00000  -0.00000
  91        3S          0.00009   0.00013  -0.00199   0.00556  -0.00963
  92        3PX        -0.00014  -0.00013  -0.00038   0.00106  -0.00144
  93        3PY         0.00021   0.00016  -0.00060   0.00049  -0.00024
  94        3PZ         0.00000   0.00000   0.00000  -0.00000   0.00000
  95        4XX        -0.00005  -0.00005  -0.00157   0.00366  -0.00617
  96        4YY        -0.00002  -0.00002  -0.00153   0.00357  -0.00603
  97        4ZZ        -0.00007  -0.00007  -0.00164   0.00375  -0.00629
  98        4XY         0.00001   0.00000  -0.00003   0.00003  -0.00004
  99        4XZ        -0.00000  -0.00000  -0.00000   0.00000  -0.00000
 100        4YZ         0.00000   0.00000   0.00000  -0.00000   0.00000
 101 12  H  1S         -0.00002  -0.00002  -0.00010   0.00018  -0.00024
 102        2S         -0.00012  -0.00012   0.00020  -0.00045   0.00100
 103 13  C  1S          0.05358   0.05358   0.00876  -0.02091   0.03609
 104        2S          0.00226   0.00226   0.00035  -0.00089   0.00158
 105        2PX         0.00015   0.00015   0.00002  -0.00005   0.00010
 106        2PY        -0.00026  -0.00026   0.00007  -0.00012   0.00019
 107        2PZ        -0.00000  -0.00000   0.00000  -0.00000  -0.00000
 108        3S          0.00346   0.00349   0.00069  -0.00167   0.00263
 109        3PX        -0.00051  -0.00053   0.00005   0.00001  -0.00013
 110        3PY         0.00201   0.00201  -0.00095   0.00134  -0.00150
 111        3PZ         0.00000   0.00000  -0.00000   0.00000  -0.00000
 112        4XX        -0.00071  -0.00071  -0.00013   0.00031  -0.00053
 113        4YY        -0.00068  -0.00068  -0.00014   0.00034  -0.00060
 114        4ZZ        -0.00062  -0.00062  -0.00012   0.00027  -0.00045
 115        4XY         0.00002   0.00002  -0.00001   0.00006  -0.00011
 116        4XZ         0.00000   0.00000   0.00000  -0.00000   0.00000
 117        4YZ        -0.00000  -0.00000   0.00000  -0.00000   0.00000
 118 14  H  1S         -0.00010  -0.00010  -0.00005   0.00008  -0.00009
 119        2S         -0.00013  -0.00012  -0.00002   0.00011  -0.00022
 120 15  C  1S          0.69976   0.69976  -0.00191   0.00450  -0.00750
 121        2S          0.03477   0.03477  -0.00014   0.00028  -0.00044
 122        2PX         0.00008   0.00008   0.00000  -0.00000   0.00001
 123        2PY         0.00009   0.00009   0.00000  -0.00001   0.00002
 124        2PZ        -0.00000  -0.00000  -0.00000  -0.00000   0.00000
 125        3S         -0.01087  -0.01089   0.00048  -0.00045   0.00026
 126        3PX        -0.00155  -0.00156   0.00021  -0.00018   0.00002
 127        3PY         0.00024   0.00023  -0.00026   0.00023  -0.00018
 128        3PZ         0.00000   0.00000  -0.00000   0.00000  -0.00000
 129        4XX        -0.00655  -0.00655   0.00002  -0.00006   0.00009
 130        4YY        -0.00643  -0.00643   0.00003  -0.00006   0.00010
 131        4ZZ        -0.00671  -0.00671  -0.00000  -0.00002   0.00005
 132        4XY        -0.00009  -0.00009  -0.00001   0.00001  -0.00001
 133        4XZ        -0.00000  -0.00000  -0.00000   0.00000  -0.00000
 134        4YZ         0.00000   0.00000   0.00000  -0.00000   0.00000
 135 16  H  1S         -0.00026  -0.00026  -0.00001   0.00001  -0.00001
 136        2S          0.00116   0.00116   0.00006  -0.00003  -0.00005
 137 17  C  1S         -0.00052   0.00052   0.11980   0.18494   0.17097
 138        2S         -0.00001   0.00001   0.00564   0.00884   0.00823
 139        2PX        -0.00000   0.00001  -0.00009  -0.00014  -0.00010
 140        2PY        -0.00003   0.00003  -0.00011  -0.00001   0.00028
 141        2PZ         0.00000  -0.00000  -0.00000  -0.00000  -0.00000
 142        3S          0.00003  -0.00012   0.00216   0.00183   0.00041
 143        3PX         0.00011  -0.00013   0.00007   0.00002   0.00009
 144        3PY         0.00059  -0.00058   0.00132  -0.00015  -0.00214
 145        3PZ        -0.00000   0.00000  -0.00000   0.00000   0.00000
 146        4XX         0.00001  -0.00001  -0.00134  -0.00201  -0.00177
 147        4YY        -0.00000  -0.00000  -0.00133  -0.00200  -0.00171
 148        4ZZ         0.00001  -0.00001  -0.00127  -0.00191  -0.00172
 149        4XY         0.00001  -0.00001  -0.00007  -0.00007   0.00006
 150        4XZ        -0.00000   0.00000  -0.00000  -0.00000  -0.00000
 151        4YZ         0.00000  -0.00000  -0.00000  -0.00000   0.00000
 152 18  H  1S          0.00004  -0.00004  -0.00015  -0.00015  -0.00011
 153        2S         -0.00002   0.00002  -0.00007  -0.00012   0.00010
 154 19  C  1S         -0.00493   0.00492   0.16614   0.38595   0.65063
 155        2S         -0.00018   0.00018   0.00818   0.01914   0.03237
 156        2PX         0.00001  -0.00001  -0.00002  -0.00005  -0.00007
 157        2PY        -0.00002   0.00002  -0.00007  -0.00009  -0.00009
 158        2PZ         0.00000  -0.00000  -0.00000  -0.00000  -0.00000
 159        3S         -0.00009   0.00013  -0.00199  -0.00556  -0.00963
 160        3PX        -0.00014   0.00013   0.00038   0.00106   0.00144
 161        3PY         0.00021  -0.00016   0.00060   0.00049   0.00024
 162        3PZ        -0.00000   0.00000   0.00000   0.00000   0.00000
 163        4XX         0.00005  -0.00005  -0.00157  -0.00366  -0.00617
 164        4YY         0.00002  -0.00002  -0.00153  -0.00357  -0.00603
 165        4ZZ         0.00007  -0.00007  -0.00164  -0.00375  -0.00629
 166        4XY        -0.00001   0.00000  -0.00003  -0.00003  -0.00004
 167        4XZ        -0.00000   0.00000   0.00000   0.00000   0.00000
 168        4YZ         0.00000  -0.00000  -0.00000  -0.00000  -0.00000
 169 20  H  1S          0.00002  -0.00002  -0.00010  -0.00018  -0.00024
 170        2S          0.00012  -0.00012   0.00020   0.00045   0.00100
 171 21  C  1S         -0.05358   0.05358   0.00876   0.02091   0.03609
 172        2S         -0.00226   0.00226   0.00035   0.00089   0.00158
 173        2PX         0.00015  -0.00015  -0.00002  -0.00005  -0.00010
 174        2PY        -0.00026   0.00026  -0.00007  -0.00012  -0.00019
 175        2PZ         0.00000  -0.00000   0.00000   0.00000  -0.00000
 176        3S         -0.00346   0.00349   0.00069   0.00167   0.00263
 177        3PX        -0.00051   0.00053  -0.00005   0.00001   0.00013
 178        3PY         0.00201  -0.00201   0.00095   0.00134   0.00150
 179        3PZ        -0.00000   0.00000  -0.00000  -0.00000  -0.00000
 180        4XX         0.00071  -0.00071  -0.00013  -0.00031  -0.00053
 181        4YY         0.00068  -0.00068  -0.00014  -0.00034  -0.00060
 182        4ZZ         0.00062  -0.00062  -0.00012  -0.00027  -0.00045
 183        4XY        -0.00002   0.00002  -0.00001  -0.00006  -0.00011
 184        4XZ         0.00000  -0.00000  -0.00000  -0.00000  -0.00000
 185        4YZ        -0.00000   0.00000  -0.00000  -0.00000  -0.00000
 186 22  H  1S          0.00010  -0.00010  -0.00005  -0.00008  -0.00009
 187        2S          0.00013  -0.00012  -0.00002  -0.00011  -0.00022
 188 23  C  1S         -0.69976   0.69976  -0.00191  -0.00450  -0.00750
 189        2S         -0.03477   0.03477  -0.00014  -0.00028  -0.00044
 190        2PX         0.00008  -0.00008  -0.00000  -0.00000  -0.00001
 191        2PY         0.00009  -0.00009  -0.00000  -0.00001  -0.00002
 192        2PZ         0.00000  -0.00000  -0.00000   0.00000   0.00000
 193        3S          0.01087  -0.01089   0.00048   0.00045   0.00026
 194        3PX        -0.00155   0.00156  -0.00021  -0.00018  -0.00002
 195        3PY         0.00024  -0.00023   0.00026   0.00023   0.00018
 196        3PZ        -0.00000   0.00000  -0.00000  -0.00000  -0.00000
 197        4XX         0.00655  -0.00655   0.00002   0.00006   0.00009
 198        4YY         0.00643  -0.00643   0.00003   0.00006   0.00010
 199        4ZZ         0.00671  -0.00671  -0.00000   0.00002   0.00005
 200        4XY         0.00009  -0.00009  -0.00001  -0.00001  -0.00001
 201        4XZ        -0.00000   0.00000   0.00000   0.00000   0.00000
 202        4YZ         0.00000  -0.00000  -0.00000  -0.00000  -0.00000
 203 24  H  1S          0.00026  -0.00026  -0.00001  -0.00001  -0.00001
 204        2S         -0.00116   0.00116   0.00006   0.00003  -0.00005
 205 25  C  1S          0.01524   0.01524  -0.00010   0.00018  -0.00027
 206        2S          0.00063   0.00063  -0.00002   0.00004  -0.00005
 207        2PX         0.00004   0.00004   0.00000  -0.00000   0.00000
 208        2PY         0.00019   0.00019   0.00001  -0.00001   0.00000
 209        2PZ         0.00000   0.00000  -0.00000   0.00000   0.00000
 210        3S          0.00237   0.00237   0.00008  -0.00010   0.00018
 211        3PX         0.00006   0.00006  -0.00006   0.00005  -0.00003
 212        3PY        -0.00149  -0.00150  -0.00004   0.00008  -0.00014
 213        3PZ        -0.00000  -0.00000   0.00000  -0.00000  -0.00000
 214        4XX        -0.00029  -0.00030  -0.00000   0.00000  -0.00001
 215        4YY        -0.00040  -0.00040  -0.00000  -0.00000   0.00001
 216        4ZZ        -0.00019  -0.00019  -0.00001   0.00001  -0.00002
 217        4XY        -0.00016  -0.00016   0.00000   0.00000  -0.00001
 218        4XZ         0.00000   0.00000  -0.00000   0.00000  -0.00000
 219        4YZ         0.00000   0.00000   0.00000  -0.00000   0.00000
 220 26  H  1S         -0.00011  -0.00011  -0.00000   0.00000  -0.00000
 221        2S          0.00037   0.00037  -0.00001   0.00000   0.00000
 222 27  H  1S         -0.00011  -0.00011  -0.00000   0.00000  -0.00000
 223        2S          0.00037   0.00037  -0.00001   0.00000   0.00000
 224 28  H  1S         -0.00010  -0.00010  -0.00001   0.00002  -0.00003
 225        2S         -0.00030  -0.00030   0.00005  -0.00007   0.00007
 226 29  C  1S         -0.01524   0.01524  -0.00010  -0.00018  -0.00027
 227        2S         -0.00063   0.00063  -0.00002  -0.00004  -0.00005
 228        2PX         0.00004  -0.00004  -0.00000  -0.00000  -0.00000
 229        2PY         0.00019  -0.00019  -0.00001  -0.00001  -0.00000
 230        2PZ        -0.00000   0.00000  -0.00000  -0.00000   0.00000
 231        3S         -0.00237   0.00237   0.00008   0.00010   0.00018
 232        3PX         0.00006  -0.00006   0.00006   0.00005   0.00003
 233        3PY        -0.00149   0.00150   0.00004   0.00008   0.00014
 234        3PZ         0.00000  -0.00000   0.00000   0.00000  -0.00000
 235        4XX         0.00029  -0.00030  -0.00000  -0.00000  -0.00001
 236        4YY         0.00040  -0.00040  -0.00000   0.00000   0.00001
 237        4ZZ         0.00019  -0.00019  -0.00001  -0.00001  -0.00002
 238        4XY         0.00016  -0.00016   0.00000  -0.00000  -0.00001
 239        4XZ         0.00000  -0.00000   0.00000   0.00000   0.00000
 240        4YZ         0.00000  -0.00000  -0.00000  -0.00000  -0.00000
 241 30  H  1S          0.00011  -0.00011  -0.00000  -0.00000  -0.00000
 242        2S         -0.00037   0.00037  -0.00001  -0.00000   0.00000
 243 31  H  1S          0.00011  -0.00011  -0.00000  -0.00000  -0.00000
 244        2S         -0.00037   0.00037  -0.00001  -0.00000   0.00000
 245 32  H  1S          0.00010  -0.00010  -0.00001  -0.00002  -0.00003
 246        2S          0.00030  -0.00030   0.00005   0.00007   0.00007
                           6         7         8         9        10
                           O         O         O         O         O
     Eigenvalues --   -10.18804 -10.18750 -10.18720 -10.18669 -10.18669
   1 1   C  1S          0.37156  -0.42579  -0.28570  -0.12284   0.13099
   2        2S          0.01853  -0.02156  -0.01456  -0.00644   0.00679
   3        2PX        -0.00001   0.00017   0.00020   0.00016  -0.00016
   4        2PY        -0.00011  -0.00018  -0.00025   0.00023  -0.00018
   5        2PZ         0.00000   0.00000   0.00000   0.00000  -0.00000
   6        3S         -0.00545   0.01006   0.00846   0.00684  -0.00590
   7        3PX         0.00054  -0.00147  -0.00137  -0.00105   0.00054
   8        3PY         0.00050   0.00128   0.00235  -0.00155   0.00155
   9        3PZ         0.00000  -0.00000  -0.00000  -0.00000  -0.00000
  10        4XX        -0.00353   0.00387   0.00247   0.00092  -0.00099
  11        4YY        -0.00347   0.00382   0.00246   0.00084  -0.00088
  12        4ZZ        -0.00358   0.00402   0.00268   0.00106  -0.00116
  13        4XY         0.00000   0.00008   0.00011  -0.00010   0.00008
  14        4XZ         0.00000  -0.00000  -0.00000  -0.00000   0.00000
  15        4YZ        -0.00000   0.00000   0.00000  -0.00000   0.00000
  16 2   H  1S         -0.00011   0.00012   0.00003  -0.00003   0.00004
  17        2S          0.00072  -0.00099  -0.00055  -0.00038   0.00050
  18 3   C  1S          0.19524   0.54607   0.62998   0.04071  -0.07076
  19        2S          0.00962   0.02733   0.03187   0.00207  -0.00360
  20        2PX        -0.00004   0.00009   0.00030   0.00006  -0.00008
  21        2PY         0.00018  -0.00029   0.00015  -0.00008  -0.00000
  22        2PZ        -0.00000   0.00000   0.00000  -0.00000   0.00000
  23        3S         -0.00153  -0.00874  -0.01634  -0.00177   0.00230
  24        3PX         0.00009  -0.00137  -0.00234  -0.00057   0.00023
  25        3PY        -0.00083   0.00250  -0.00091   0.00119   0.00007
  26        3PZ         0.00000  -0.00000  -0.00000   0.00000  -0.00000
  27        4XX        -0.00190  -0.00516  -0.00561  -0.00033   0.00056
  28        4YY        -0.00184  -0.00514  -0.00542  -0.00033   0.00053
  29        4ZZ        -0.00190  -0.00527  -0.00592  -0.00039   0.00066
  30        4XY         0.00005  -0.00017   0.00004  -0.00003   0.00002
  31        4XZ        -0.00000   0.00000   0.00000   0.00000  -0.00000
  32        4YZ         0.00000  -0.00000  -0.00000  -0.00000   0.00000
  33 4   H  1S         -0.00006  -0.00021  -0.00012  -0.00004  -0.00003
  34        2S          0.00038   0.00095   0.00135  -0.00000  -0.00006
  35 5   C  1S         -0.19524   0.54607  -0.62998   0.04071   0.07076
  36        2S         -0.00962   0.02733  -0.03187   0.00207   0.00360
  37        2PX        -0.00004  -0.00009   0.00030  -0.00006  -0.00008
  38        2PY         0.00018   0.00029   0.00015   0.00008  -0.00000
  39        2PZ         0.00000   0.00000  -0.00000  -0.00000  -0.00000
  40        3S          0.00153  -0.00874   0.01634  -0.00177  -0.00230
  41        3PX         0.00009   0.00137  -0.00234   0.00057   0.00023
  42        3PY        -0.00083  -0.00250  -0.00091  -0.00119   0.00007
  43        3PZ        -0.00000  -0.00000   0.00000   0.00000   0.00000
  44        4XX         0.00190  -0.00516   0.00561  -0.00033  -0.00056
  45        4YY         0.00184  -0.00514   0.00542  -0.00033  -0.00053
  46        4ZZ         0.00190  -0.00527   0.00592  -0.00039  -0.00066
  47        4XY        -0.00005  -0.00017  -0.00004  -0.00003  -0.00002
  48        4XZ        -0.00000  -0.00000   0.00000  -0.00000  -0.00000
  49        4YZ         0.00000   0.00000  -0.00000   0.00000   0.00000
  50 6   H  1S          0.00006  -0.00021   0.00012  -0.00004   0.00003
  51        2S         -0.00038   0.00095  -0.00135  -0.00000   0.00006
  52 7   C  1S         -0.37156  -0.42579   0.28570  -0.12284  -0.13099
  53        2S         -0.01853  -0.02156   0.01456  -0.00644  -0.00679
  54        2PX        -0.00001  -0.00017   0.00020  -0.00016  -0.00016
  55        2PY        -0.00011   0.00018  -0.00025  -0.00023  -0.00018
  56        2PZ        -0.00000   0.00000  -0.00000   0.00000   0.00000
  57        3S          0.00545   0.01006  -0.00846   0.00684   0.00590
  58        3PX         0.00054   0.00147  -0.00137   0.00105   0.00054
  59        3PY         0.00050  -0.00128   0.00235   0.00155   0.00155
  60        3PZ        -0.00000  -0.00000   0.00000  -0.00000   0.00000
  61        4XX         0.00353   0.00387  -0.00247   0.00092   0.00099
  62        4YY         0.00347   0.00382  -0.00246   0.00084   0.00088
  63        4ZZ         0.00358   0.00402  -0.00268   0.00106   0.00116
  64        4XY        -0.00000   0.00008  -0.00011  -0.00010  -0.00008
  65        4XZ         0.00000   0.00000  -0.00000   0.00000   0.00000
  66        4YZ        -0.00000  -0.00000   0.00000   0.00000   0.00000
  67 8   H  1S          0.00011   0.00012  -0.00003  -0.00003  -0.00004
  68        2S         -0.00072  -0.00099   0.00055  -0.00038  -0.00050
  69 9   C  1S          0.10379  -0.09221   0.10956   0.66384   0.66014
  70        2S          0.00501  -0.00449   0.00543   0.03333   0.03312
  71        2PX         0.00005  -0.00007   0.00003  -0.00019  -0.00019
  72        2PY        -0.00032  -0.00014   0.00013  -0.00001  -0.00003
  73        2PZ        -0.00000  -0.00000   0.00000   0.00000   0.00000
  74        3S         -0.00011  -0.00102  -0.00086  -0.01354  -0.01294
  75        3PX        -0.00017   0.00035   0.00034   0.00204   0.00187
  76        3PY         0.00225   0.00104  -0.00140  -0.00006  -0.00016
  77        3PZ         0.00000   0.00000  -0.00000  -0.00000  -0.00000
  78        4XX        -0.00104   0.00099  -0.00112  -0.00612  -0.00608
  79        4YY        -0.00096   0.00104  -0.00116  -0.00599  -0.00593
  80        4ZZ        -0.00103   0.00094  -0.00108  -0.00634  -0.00631
  81        4XY         0.00009   0.00009  -0.00006  -0.00005  -0.00005
  82        4XZ         0.00000   0.00000  -0.00000  -0.00000  -0.00000
  83        4YZ        -0.00000  -0.00000   0.00000   0.00000   0.00000
  84 10  H  1S         -0.00006   0.00005  -0.00010  -0.00020  -0.00019
  85        2S          0.00018  -0.00015   0.00019   0.00121   0.00120
  86 11  C  1S          0.55207   0.06995  -0.05100  -0.18772  -0.18634
  87        2S          0.02751   0.00353  -0.00264  -0.00974  -0.00966
  88        2PX         0.00005   0.00002  -0.00003  -0.00019  -0.00019
  89        2PY         0.00006  -0.00002  -0.00000   0.00023   0.00022
  90        2PZ         0.00000   0.00000  -0.00000   0.00000   0.00000
  91        3S         -0.00834  -0.00117   0.00219   0.00733   0.00712
  92        3PX        -0.00113  -0.00007   0.00056   0.00106   0.00105
  93        3PY        -0.00005  -0.00035   0.00005  -0.00205  -0.00182
  94        3PZ         0.00000  -0.00000  -0.00000  -0.00000  -0.00000
  95        4XX        -0.00523  -0.00065   0.00046   0.00154   0.00153
  96        4YY        -0.00513  -0.00063   0.00046   0.00154   0.00152
  97        4ZZ        -0.00533  -0.00066   0.00046   0.00171   0.00171
  98        4XY        -0.00003  -0.00001   0.00000   0.00007   0.00008
  99        4XZ        -0.00000  -0.00000  -0.00000   0.00000   0.00000
 100        4YZ         0.00000   0.00000  -0.00000  -0.00000  -0.00000
 101 12  H  1S         -0.00020  -0.00004   0.00004  -0.00001  -0.00000
 102        2S          0.00094   0.00027  -0.00012  -0.00053  -0.00052
 103 13  C  1S          0.03087   0.00468  -0.00380  -0.01820  -0.01809
 104        2S          0.00136   0.00020  -0.00014  -0.00088  -0.00087
 105        2PX         0.00008   0.00002  -0.00002  -0.00004  -0.00004
 106        2PY         0.00015   0.00000   0.00001  -0.00007  -0.00006
 107        2PZ        -0.00000  -0.00000   0.00000  -0.00000   0.00000
 108        3S          0.00223   0.00067  -0.00090  -0.00064  -0.00077
 109        3PX        -0.00015  -0.00033   0.00033   0.00005   0.00013
 110        3PY        -0.00110   0.00008   0.00018   0.00065   0.00062
 111        3PZ        -0.00000   0.00000  -0.00000   0.00000   0.00000
 112        4XX        -0.00045  -0.00006   0.00006   0.00024   0.00024
 113        4YY        -0.00052  -0.00008   0.00005   0.00030   0.00029
 114        4ZZ        -0.00038  -0.00006   0.00005   0.00020   0.00020
 115        4XY        -0.00010  -0.00001   0.00001   0.00004   0.00004
 116        4XZ         0.00000  -0.00000   0.00000  -0.00000  -0.00000
 117        4YZ         0.00000  -0.00000  -0.00000   0.00000   0.00000
 118 14  H  1S         -0.00007   0.00001  -0.00000   0.00004   0.00003
 119        2S         -0.00019   0.00006  -0.00005  -0.00006  -0.00007
 120 15  C  1S         -0.00634  -0.00079   0.00059   0.00223   0.00221
 121        2S         -0.00036  -0.00003   0.00001   0.00012   0.00012
 122        2PX         0.00001   0.00000   0.00001   0.00001   0.00001
 123        2PY         0.00002   0.00002  -0.00001   0.00003   0.00002
 124        2PZ         0.00000   0.00000  -0.00000   0.00000   0.00000
 125        3S          0.00010  -0.00037   0.00027  -0.00031  -0.00021
 126        3PX        -0.00004  -0.00013   0.00000  -0.00023  -0.00019
 127        3PY        -0.00009   0.00012  -0.00024  -0.00033  -0.00033
[...]
     7  C    0.000000  -0.000000
     8  H    0.000000   0.000000
     9  C   -0.000000   0.000000
    10  H   -0.000000  -0.000000
    11  C    0.000000   0.000000
    12  H    0.000000   0.000000
    13  C    0.000000   0.000000
    14  H    0.000000   0.000000
    15  C    0.000000   0.000000
    16  H    0.000000   0.000000
    17  C    0.000004   0.000006
    18  H    0.000000   0.000000
    19  C   -0.000105   0.000193
    20  H   -0.000000   0.000012
    21  C   -0.000947  -0.005527
    22  H    0.000117   0.006593
    23  C   -0.030757  -0.035936
    24  H   -0.000712   0.004624
    25  C    0.000000   0.000000
    26  H    0.000000   0.000000
    27  H    0.000000   0.000000
    28  H    0.000000   0.000000
    29  C    0.366864   0.373998
    30  H   -0.037013  -0.028107
    31  H    0.572257  -0.028107
    32  H   -0.028107   0.557641
 Mulliken charges:
               1
     1  C   -0.124621
     2  H    0.120792
     3  C   -0.124579
     4  H    0.120746
     5  C   -0.124579
     6  H    0.120746
     7  C   -0.124621
     8  H    0.120792
     9  C   -0.125494
    10  H    0.120322
    11  C   -0.124149
    12  H    0.120457
    13  C   -0.099785
    14  H    0.117265
    15  C   -0.106127
    16  H    0.124407
    17  C   -0.125494
    18  H    0.120322
    19  C   -0.124149
    20  H    0.120457
    21  C   -0.099785
    22  H    0.117265
    23  C   -0.106127
    24  H    0.124407
    25  C   -0.490640
    26  H    0.158400
    27  H    0.158398
    28  H    0.154608
    29  C   -0.490640
    30  H    0.158400
    31  H    0.158398
    32  H    0.154608
 Sum of Mulliken charges =  -0.00000
 Mulliken charges with hydrogens summed into heavy atoms:
               1
     1  C   -0.003829
     3  C   -0.003833
     5  C   -0.003833
     7  C   -0.003829
     9  C   -0.005172
    11  C   -0.003693
    13  C    0.017480
    15  C    0.018280
    17  C   -0.005172
    19  C   -0.003693
    21  C    0.017480
    23  C    0.018280
    25  C   -0.019233
    29  C   -0.019233
 Electronic spatial extent (au):  <R**2>=          10161.7370
 Charge=             -0.0000 electrons
 Dipole moment (field-independent basis, Debye):
    X=              0.0000    Y=             -0.0000    Z=              0.0003  Tot=              0.0003
 Quadrupole moment (field-independent basis, Debye-Ang):
   XX=            -78.0542   YY=            -65.1065   ZZ=            -91.9961
   XY=             -1.5075   XZ=             -0.0000   YZ=              0.0000
 Traceless Quadrupole moment (field-independent basis, Debye-Ang):
   XX=              0.3314   YY=             13.2791   ZZ=            -13.6105
   XY=             -1.5075   XZ=             -0.0000   YZ=              0.0000
 Octapole moment (field-independent basis, Debye-Ang**2):
  XXX=              0.0000  YYY=             -0.0000  ZZZ=              0.0050  XYY=             -0.0000
  XXY=             -0.0000  XXZ=              0.0004  XZZ=              0.0000  YZZ=              0.0000
  YYZ=              0.0302  XYZ=             -0.0199
 Hexadecapole moment (field-independent basis, Debye-Ang**3):
 XXXX=           -253.7591 YYYY=         -12003.3230 ZZZZ=           -108.6788 XXXY=            230.3517
 XXXZ=             -0.0000 YYYX=            106.8183 YYYZ=              0.0000 ZZZX=             -0.0000
 ZZZY=              0.0000 XXYY=          -2204.2005 XXZZ=            -66.6560 YYZZ=          -2409.3090
 XXYZ=              0.0000 YYXZ=              0.0000 ZZXY=             82.4896
 N-N= 6.804226479731D+02 E-N=-2.619121230827D+03  KE= 5.387762099511D+02
 Symmetry A    KE= 2.708584514364D+02
 Symmetry B    KE= 2.679177585147D+02
 Orbital energies and kinetic energies (alpha):
                                 1                 2
   1         O               -10.189879         15.880122
   2         O               -10.189879         15.880121
   3         O               -10.188225         15.872098
   4         O               -10.188141         15.874625
   5         O               -10.188064         15.876932
   6         O               -10.188038         15.877718
   7         O               -10.187497         15.882774
   8         O               -10.187201         15.887772
   9         O               -10.186692         15.884864
  10         O               -10.186690         15.884998
  11         O               -10.184692         15.881640
  12         O               -10.184692         15.881625
  13         O               -10.183842         15.882175
  14         O               -10.183842         15.882174
  15         O                -0.823651          1.511265
  16         O                -0.814091          1.511206
  17         O                -0.799470          1.510095
  18         O                -0.779841          1.508888
  19         O                -0.755188          1.508973
  20         O                -0.725549          1.510338
  21         O                -0.691032          1.498672
  22         O                -0.665341          1.580682
  23         O                -0.614500          1.596174
  24         O                -0.570958          1.558292
  25         O                -0.561101          1.029683
  26         O                -0.554005          1.062160
  27         O                -0.543269          1.156520
  28         O                -0.541718          1.378866
  29         O                -0.477235          1.099200
  30         O                -0.476875          1.239221
  31         O                -0.455483          1.116209
  32         O                -0.444854          1.377916
  33         O                -0.426332          1.198962
  34         O                -0.413493          1.282899
  35         O                -0.411468          0.943614
  36         O                -0.411465          0.943639
  37         O                -0.396309          1.364397
  38         O                -0.388291          1.249165
  39         O                -0.370732          1.380451
  40         O                -0.369623          1.252735
  41         O                -0.362229          1.393803
  42         O                -0.356961          1.180150
  43         O                -0.349901          1.174313
  44         O                -0.345151          0.958149
  45         O                -0.344315          1.202413
  46         O                -0.340264          1.299742
  47         O                -0.327446          0.984846
  48         O                -0.300032          1.026126
  49         O                -0.264034          1.081288
  50         O                -0.220743          1.151224
  51         O                -0.173534          1.236190
  52         V                -0.065709          1.306327
  53         V                -0.010440          1.391946
  54         V                 0.041577          1.460245
  55         V                 0.082557          1.472920
  56         V                 0.090725          0.848155
  57         V                 0.103440          0.872498
  58         V                 0.106792          1.403578
  59         V                 0.115354          1.299440
  60         V                 0.117293          0.964446
  61         V                 0.117525          0.966695
  62         V                 0.123513          0.916463
  63         V                 0.148371          0.977509
  64         V                 0.149026          1.065487
  65         V                 0.151328          1.083187
  66         V                 0.156248          1.088027
  67         V                 0.161902          1.019172
  68         V                 0.164410          1.120103
  69         V                 0.170162          0.981581
  70         V                 0.172576          0.906285
  71         V                 0.172622          0.906972
  72         V                 0.180903          1.155654
  73         V                 0.185712          1.054445
  74         V                 0.204722          1.186822
  75         V                 0.208296          1.224470
  76         V                 0.246537          2.154708
  77         V                 0.256457          1.807529
  78         V                 0.291276          1.971117
  79         V                 0.331987          1.724684
  80         V                 0.333768          1.112881
  81         V                 0.348021          1.283254
  82         V                 0.377910          1.346261
  83         V                 0.381762          1.215311
  84         V                 0.393056          1.559953
  85         V                 0.412925          1.681029
  86         V                 0.420257          1.970553
  87         V                 0.430747          2.077394
  88         V                 0.432130          1.580071
  89         V                 0.482462          1.624564
  90         V                 0.482874          2.023091
  91         V                 0.521167          1.950575
  92         V                 0.526922          1.919191
  93         V                 0.538275          1.892766
  94         V                 0.554878          1.921149
  95         V                 0.555486          2.292777
  96         V                 0.558981          2.413990
  97         V                 0.577596          1.945469
  98         V                 0.582474          2.248463
  99         V                 0.585562          2.150371
 100         V                 0.594066          1.587839
 101         V                 0.594890          2.394061
 102         V                 0.597713          1.784083
 103         V                 0.607364          2.104186
 104         V                 0.613392          1.994200
 105         V                 0.613529          2.206450
 106         V                 0.617837          2.005911
 107         V                 0.632511          2.215670
 108         V                 0.637515          2.050649
 109         V                 0.654129          2.476734
 110         V                 0.657939          2.202042
 111         V                 0.666885          2.121908
 112         V                 0.668142          2.068449
 113         V                 0.713566          2.124629
 114         V                 0.713790          2.223239
 115         V                 0.730120          2.069698
 116         V                 0.730223          2.072502
 117         V                 0.756346          2.201928
 118         V                 0.758129          2.218862
 119         V                 0.775245          2.565987
 120         V                 0.775373          2.561586
 121         V                 0.819919          2.776689
 122         V                 0.833168          2.812843
 123         V                 0.854517          2.852233
 124         V                 0.861379          2.552145
 125         V                 0.867501          2.550647
 126         V                 0.875360          2.516510
 127         V                 0.875865          2.515968
 128         V                 0.876115          2.563138
 129         V                 0.879602          2.888162
 130         V                 0.886848          2.562332
 131         V                 0.897052          2.586758
 132         V                 0.899739          2.752855
 133         V                 0.903000          2.639820
 134         V                 0.903177          2.660353
 135         V                 0.916658          2.759948
 136         V                 0.918326          2.779959
 137         V                 0.937007          2.499031
 138         V                 0.945736          2.505121
 139         V                 0.953801          2.655830
 140         V                 0.954618          2.680021
 141         V                 0.995038          2.522218
 142         V                 0.997892          2.432283
 143         V                 1.038573          2.104157
 144         V                 1.042375          2.113327
 145         V                 1.057709          2.319641
 146         V                 1.080936          2.187745
 147         V                 1.089617          2.485552
 148         V                 1.114535          2.209653
 149         V                 1.136788          2.229281
 150         V                 1.162091          2.244224
 151         V                 1.194638          2.459993
 152         V                 1.209286          2.291312
 153         V                 1.270962          2.409185
 154         V                 1.273767          2.406894
 155         V                 1.319211          2.495972
 156         V                 1.326592          2.488808
 157         V                 1.326825          2.492925
 158         V                 1.330801          2.492942
 159         V                 1.341892          2.506765
 160         V                 1.347933          2.534604
 161         V                 1.353831          2.519385
 162         V                 1.366529          2.445339
 163         V                 1.366670          2.523338
 164         V                 1.404869          2.556894
 165         V                 1.409446          2.470746
 166         V                 1.434216          2.569690
 167         V                 1.463741          2.644098
 168         V                 1.491949          2.646015
 169         V                 1.537831          2.765286
 170         V                 1.540600          2.819035
 171         V                 1.546201          2.710683
 172         V                 1.601983          2.775921
 173         V                 1.656704          2.837869
 174         V                 1.705328          2.891079
 175         V                 1.740180          2.928618
 176         V                 1.770027          2.995308
 177         V                 1.773209          3.009725
 178         V                 1.826441          3.117087
 179         V                 1.836151          3.172131
 180         V                 1.843315          3.225032
 181         V                 1.872730          3.213733
 182         V                 1.883773          2.999483
 183         V                 1.885988          3.178270
 184         V                 1.908573          3.216891
 185         V                 1.910525          3.041599
 186         V                 1.919726          3.278598
 187         V                 1.924970          3.275050
 188         V                 1.958123          3.110848
 189         V                 1.972694          3.355308
 190         V                 1.992466          3.311814
 191         V                 2.002629          3.353069
 192         V                 2.024361          3.204255
 193         V                 2.026637          3.469531
 194         V                 2.103332          3.316267
 195         V                 2.114551          3.602919
 196         V                 2.140394          3.614231
 197         V                 2.152834          3.482016
 198         V                 2.160672          3.555790
 199         V                 2.187476          3.438901
 200         V                 2.205470          3.561374
 201         V                 2.232820          3.681447
 202         V                 2.266353          3.560357
 203         V                 2.281612          3.835720
 204         V                 2.295754          3.748668
 205         V                 2.297576          3.753860
 206         V                 2.322866          3.639575
 207         V                 2.352255          3.837515
 208         V                 2.355767          3.640369
 209         V                 2.358467          3.846687
 210         V                 2.383455          3.837402
 211         V                 2.398990          3.843220
 212         V                 2.436554          3.702953
 213         V                 2.454381          4.030568
 214         V                 2.472501          3.724588
 215         V                 2.487394          3.745323
 216         V                 2.495943          3.750203
 217         V                 2.517782          3.779386
 218         V                 2.519181          3.778901
 219         V                 2.580230          4.194938
 220         V                 2.629937          4.390787
 221         V                 2.797606          4.604326
 222         V                 2.816620          4.693607
 223         V                 2.886434          4.587250
 224         V                 2.898493          4.654245
 225         V                 2.933958          4.713378
 226         V                 2.938267          4.755834
 227         V                 2.947052          4.745323
 228         V                 2.974334          4.706243
 229         V                 3.053308          4.847770
 230         V                 3.060412          4.894192
 231         V                 3.125946          4.978524
 232         V                 3.127645          4.987658
 233         V                 4.094980         10.190161
 234         V                 4.098140         10.189112
 235         V                 4.105879         10.190822
 236         V                 4.118282         10.181020
 237         V                 4.137349         10.172996
 238         V                 4.162625         10.167612
 239         V                 4.186712         10.148035
 240         V                 4.259142         10.164441
 241         V                 4.299889         10.163287
 242         V                 4.342265         10.147302
 243         V                 4.394705         10.130058
 244         V                 4.456403         10.111656
 245         V                 4.516771         10.090740
 246         V                 4.561889         10.074832
 Total kinetic energy from orbitals= 5.387762099511D+02
 Leave Link  601 at Mon Jun  7 10:28:19 2021, MaxMem=    33554432 cpu:         0.7
 (Enter /opt/app/gaussian09/e01/g09/l9999.exe)
 1\1\GINC-NB-0027\SP\RB3LYP TD-FC\6-31G(d)\C14H18\ROOT\07-Jun-2021\0\\#
 p td b3lyp/6-31g(d) geom=connectivity pop=full\\Title Card Required\\0
 ,1\C,0,-1.83112641,-0.35099058,-0.00041463\H,0,-1.81654739,-1.44197973
 ,-0.00030442\C,0,-0.64375574,0.31596227,-0.00052889\H,0,-0.65860385,1.
 40697396,-0.00064168\C,0,0.64375574,-0.31596227,-0.00052881\H,0,0.6586
 0385,-1.40697396,-0.00064123\C,0,1.83112641,0.35099058,-0.00041502\H,0
 ,1.81654739,1.44197973,-0.00030531\C,0,3.12034365,-0.28175352,-0.00043
 818\H,0,3.13390664,-1.37285091,-0.00083467\C,0,4.30495177,0.38352797,0
 .00004581\H,0,4.29304972,1.47452457,0.00048006\C,0,5.60141421,-0.25377
 871,0.00006028\H,0,5.60974012,-1.34529969,-0.00036765\C,0,6.77697363,0
 .40518394,0.00055167\H,0,6.76212344,1.49639479,0.00097805\C,0,-3.12034
 365,0.28175352,-0.0004377\H,0,-3.13390664,1.37285091,-0.00083399\C,0,-
 4.30495177,-0.38352797,0.00004598\H,0,-4.29304972,-1.47452457,0.000479
 91\C,0,-5.60141421,0.25377871,0.00006035\H,0,-5.60974012,1.34529969,-0
 .00036729\C,0,-6.77697363,-0.40518394,0.00055146\H,0,-6.76212344,-1.49
 639479,0.00097762\C,0,8.12831257,-0.24155067,0.00055685\H,0,8.71518643
 ,0.05873655,-0.87901418\H,0,8.71486163,0.05808258,0.88056899\H,0,8.052
 87851,-1.33417725,0.00013818\C,0,-8.12831257,0.24155067,0.00055668\H,0
 ,-8.71518633,-0.05873634,-0.87901448\H,0,-8.71486168,-0.05808279,0.880
 56869\H,0,-8.05287851,1.33417725,0.00013829\\Version=ES64L-G09RevE.01\
 State=1-A\HF=-544.2610982\RMSD=7.823e-09\PG=C02 [X(C14H18)]\\@


 TO ERR IS HUMAN - AND TO BLAME IT ON A COMPUTER IS EVEN MORE SO.
 Job cpu time:       0 days  0 hours  3 minutes  9.1 seconds.
 File lengths (MBytes):  RWF=    104 Int=      0 D2E=      0 Chk=     11 Scr=      1
 Normal termination of Gaussian 09 at Mon Jun  7 10:28:20 2021.
