 Entering Gaussian System, Link 0=/opt/app/gaussian09/e01/g09/g09.exec
 Input=1_methylamino_anthraquinone_td.gjf
 Output=1_methylamino_anthraquinone_td.log
 Initial command:
 /opt/app/gaussian09/e01/g09/l1.exe "./Gau-59103.inp" -scrdir="./"
 Entering Link 1 = /opt/app/gaussian09/e01/g09/l1.exe PID=     59107.
  
 Copyright (c) 1988,1990,1992,1993,1995,1998,2003,2009,2015,
            Gaussian, Inc.  All Rights Reserved.
  
 This is part of the Gaussian(R) 09 program.  It is based on
 the Gaussian(R) 03 system (copyright 2003, Gaussian, Inc.),
 the Gaussian(R) 98 system (copyright 1998, Gaussian, Inc.),
 the Gaussian(R) 94 system (copyright 1995, Gaussian, Inc.),
 the Gaussian 92(TM) system (copyright 1992, Gaussian, Inc.),
 the Gaussian 90(TM) system (copyright 1990, Gaussian, Inc.),
 the Gaussian 88(TM) system (copyright 1988, Gaussian, Inc.),
 the Gaussian 86(TM) system (copyright 1986, Carnegie Mellon
 University), and the Gaussian 82(TM) system (copyright 1983,
 Carnegie Mellon University). Gaussian is a federally registered
 trademark of Gaussian, Inc.
  
 This software contains proprietary and confidential information,
 including trade secrets, belonging to Gaussian, Inc.
  
 This software is provided under written license and may be
 used, copied, transmitted, or stored only in accord with that
 written license.
  
 The following legend is applicable only to US Government
 contracts under FAR:
  
                    RESTRICTED RIGHTS LEGEND
  
 Use, reproduction and disclosure by the US Government is
 subject to restrictions as set forth in subparagraphs (a)
 and (c) of the Commercial Computer Software - Restricted
 Rights clause in FAR 52.227-19.
  
 Gaussian, Inc.
 340 Quinnipiac St., Bldg. 40, Wallingford CT 06492
  
  
 ---------------------------------------------------------------
 Warning -- This program may not be used in any manner that
 competes with the business of Gaussian, Inc. or will provide
 assistance to any competitor of Gaussian, Inc.  The licensee
 of this program is prohibited from giving any competitor of
 Gaussian, Inc. access to this program.  By using this program,
 the user acknowledges that Gaussian, Inc. is engaged in the
 business of creating and licensing software in the field of
 computational chemistry and represents and warrants to the
 licensee that it is not a competitor of Gaussian, Inc. and that
 it will not use this program in any manner prohibited above.
 ---------------------------------------------------------------
  

 Cite this work as:
 Gaussian 09, Revision E.01,
 M. J. Frisch, G. W. Trucks, H. B. Schlegel, G. E. Scuseria, 
 M. A. Robb, J. R. Cheeseman, G. Scalmani, V. Barone, B. Mennucci, 
 G. A. Petersson, H. Nakatsuji, M. Caricato, X. Li, H. P. Hratchian, 
 A. F. Izmaylov, J. Bloino, G. Zheng, J. L. Sonnenberg, M. Hada, 
 M. Ehara, K. Toyota, R. Fukuda, J. Hasegawa, M. Ishida, T. Nakajima, 
 Y. Honda, O. Kitao, H. Nakai, T. Vreven, J. A. Montgomery, Jr., 
 J. E. Peralta, F. Ogliaro, M. Bearpark, J. J. Heyd, E. Brothers, 
 K. N. Kudin, V. N. Staroverov, T. Keith, R. Kobayashi, J. Normand, 
 K. Raghavachari, A. Rendell, J. C. Burant, S. S. Iyengar, J. Tomasi, 
 M. Cossi, N. Rega, J. M. Millam, M. Klene, J. E. Knox, J. B. Cross, 
 V. Bakken, C. Adamo, J. Jaramillo, R. Gomperts, R. E. Stratmann, 
 O. Yazyev, A. J. Austin, R. Cammi, C. Pomelli, J. W. Ochterski, 
 R. L. Martin, K. Morokuma, V. G. Zakrzewski, G. A. Voth, 
 P. Salvador, J. J. Dannenberg, S. Dapprich, A. D. Daniels, 
 O. Farkas, J. B. Foresman, J. V. Ortiz, J. Cioslowski, 
 and D. J. Fox, Gaussian, Inc., Wallingford CT, 2013.
 
 ******************************************
 Gaussian 09:  ES64L-G09RevE.01 30-Nov-2015
                 3-Jun-2021 
 ******************************************
 %chk=1_methylamino_anthraquinone_td.chk
 -------------------------------------------------
 #p td(NStates=10) b3lyp/6-31+g(d) nosymm pop=full
 -------------------------------------------------
 1/38=1/1;
 2/12=2,15=1,17=6,18=5,40=1/2;
 3/5=1,6=6,7=11,11=9,16=1,25=1,30=1,74=-5/1,2,8,3;
 4//1;
 5/5=2,38=5/2;
 8/6=1,10=2,108=10/1;
 9/41=10,42=1,70=2/14;
 6/7=3/1;
 99/5=1,9=1/99;
 Leave Link    1 at Thu Jun  3 21:09:07 2021, MaxMem=           0 cpu:         0.0
 (Enter /opt/app/gaussian09/e01/g09/l101.exe)
 -------------------
 Title Card Required
 -------------------
 Symbolic Z-matrix:
 Charge =  0 Multiplicity = 1
 C                    -4.13717  -0.09408   0.18117 
 C                    -3.18838   0.92199   0.23702 
 C                    -1.83015   0.62155   0.07535 
 C                    -1.42331  -0.70363  -0.14934 
 C                    -2.38589  -1.71794  -0.2194 
 C                    -3.73418  -1.41556  -0.04881 
 C                    -0.82701   1.71543   0.10871 
 C                     0.01857  -1.06469  -0.33175 
 C                     1.03514  -0.02007  -0.07536 
 C                     0.61722   1.34151  -0.01641 
 C                     1.53054   2.38729  -0.07132 
 H                     1.15929   3.40454  -0.02747 
 C                     2.89355   2.10263  -0.19659 
 C                     3.33323   0.79264  -0.18606 
 C                     2.43609  -0.29982  -0.06976 
 H                    -5.1907    0.13862   0.30997 
 H                    -3.47124   1.95687   0.39952 
 H                    -2.05251  -2.7327   -0.40879 
 H                    -4.47605  -2.20823  -0.0966 
 H                     3.61638   2.9107   -0.26967 
 H                     4.40036   0.58175  -0.22686 
 O                     0.30604  -2.19187  -0.73587 
 O                    -1.16968   2.88663   0.24038 
 N                     2.99501  -1.55112   0.05201 
 H                     4.00432  -1.52672   0.00771 
 C                     2.47768  -2.64347   0.8687 
 H                     3.33006  -3.17967   1.29721 
 H                     1.86515  -2.25683   1.69282 
 H                     1.86338  -3.3312    0.28518 
 
 NAtoms=     29 NQM=       29 NQMF=       0 NMMI=      0 NMMIF=      0
                NMic=       0 NMicF=      0.
                    Isotopes and Nuclear Properties:
 (Nuclear quadrupole moments (NQMom) in fm**2, nuclear magnetic moments (NMagM)
  in nuclear magnetons)

  Atom         1           2           3           4           5           6           7           8           9          10
 IAtWgt=          12          12          12          12          12          12          12          12          12          12
 AtmWgt=  12.0000000  12.0000000  12.0000000  12.0000000  12.0000000  12.0000000  12.0000000  12.0000000  12.0000000  12.0000000
 NucSpn=           0           0           0           0           0           0           0           0           0           0
 AtZEff=   0.0000000   0.0000000   0.0000000   0.0000000   0.0000000   0.0000000   0.0000000   0.0000000   0.0000000   0.0000000
 NQMom=    0.0000000   0.0000000   0.0000000   0.0000000   0.0000000   0.0000000   0.0000000   0.0000000   0.0000000   0.0000000
 NMagM=    0.0000000   0.0000000   0.0000000   0.0000000   0.0000000   0.0000000   0.0000000   0.0000000   0.0000000   0.0000000
 AtZNuc=   6.0000000   6.0000000   6.0000000   6.0000000   6.0000000   6.0000000   6.0000000   6.0000000   6.0000000   6.0000000

  Atom        11          12          13          14          15          16          17          18          19          20
 IAtWgt=          12           1          12          12          12           1           1           1           1           1
 AtmWgt=  12.0000000   1.0078250  12.0000000  12.0000000  12.0000000   1.0078250   1.0078250   1.0078250   1.0078250   1.0078250
 NucSpn=           0           1           0           0           0           1           1           1           1           1
 AtZEff=   0.0000000   0.0000000   0.0000000   0.0000000   0.0000000   0.0000000   0.0000000   0.0000000   0.0000000   0.0000000
 NQMom=    0.0000000   0.0000000   0.0000000   0.0000000   0.0000000   0.0000000   0.0000000   0.0000000   0.0000000   0.0000000
 NMagM=    0.0000000   2.7928460   0.0000000   0.0000000   0.0000000   2.7928460   2.7928460   2.7928460   2.7928460   2.7928460
 AtZNuc=   6.0000000   1.0000000   6.0000000   6.0000000   6.0000000   1.0000000   1.0000000   1.0000000   1.0000000   1.0000000

  Atom        21          22          23          24          25          26          27          28          29
 IAtWgt=           1          16          16          14           1          12           1           1           1
 AtmWgt=   1.0078250  15.9949146  15.9949146  14.0030740   1.0078250  12.0000000   1.0078250   1.0078250   1.0078250
 NucSpn=           1           0           0           2           1           0           1           1           1
 AtZEff=   0.0000000   0.0000000   0.0000000   0.0000000   0.0000000   0.0000000   0.0000000   0.0000000   0.0000000
 NQMom=    0.0000000   0.0000000   0.0000000   2.0440000   0.0000000   0.0000000   0.0000000   0.0000000   0.0000000
 NMagM=    2.7928460   0.0000000   0.0000000   0.4037610   2.7928460   0.0000000   2.7928460   2.7928460   2.7928460
 AtZNuc=   1.0000000   8.0000000   8.0000000   7.0000000   1.0000000   6.0000000   1.0000000   1.0000000   1.0000000
 Leave Link  101 at Thu Jun  3 21:09:08 2021, MaxMem=    33554432 cpu:         0.1
 (Enter /opt/app/gaussian09/e01/g09/l202.exe)
                          Input orientation:                          
 ---------------------------------------------------------------------
 Center     Atomic      Atomic             Coordinates (Angstroms)
 Number     Number       Type             X           Y           Z
 ---------------------------------------------------------------------
      1          6           0       -4.137170   -0.094079    0.181170
      2          6           0       -3.188383    0.921989    0.237023
      3          6           0       -1.830147    0.621546    0.075355
      4          6           0       -1.423308   -0.703626   -0.149341
      5          6           0       -2.385887   -1.717944   -0.219400
      6          6           0       -3.734180   -1.415561   -0.048810
      7          6           0       -0.827010    1.715425    0.108708
      8          6           0        0.018566   -1.064694   -0.331753
      9          6           0        1.035140   -0.020066   -0.075362
     10          6           0        0.617218    1.341513   -0.016411
     11          6           0        1.530539    2.387290   -0.071324
     12          1           0        1.159295    3.404539   -0.027468
     13          6           0        2.893547    2.102628   -0.196592
     14          6           0        3.333235    0.792640   -0.186058
     15          6           0        2.436086   -0.299817   -0.069762
     16          1           0       -5.190695    0.138616    0.309975
     17          1           0       -3.471239    1.956867    0.399515
     18          1           0       -2.052514   -2.732697   -0.408786
     19          1           0       -4.476050   -2.208232   -0.096601
     20          1           0        3.616383    2.910701   -0.269668
     21          1           0        4.400364    0.581748   -0.226859
     22          8           0        0.306041   -2.191874   -0.735872
     23          8           0       -1.169676    2.886632    0.240378
     24          7           0        2.995009   -1.551122    0.052011
     25          1           0        4.004322   -1.526720    0.007708
     26          6           0        2.477680   -2.643467    0.868698
     27          1           0        3.330061   -3.179666    1.297206
     28          1           0        1.865149   -2.256830    1.692816
     29          1           0        1.863383   -3.331200    0.285183
 ---------------------------------------------------------------------
                    Distance matrix (angstroms):
                    1          2          3          4          5
     1  C    0.000000
     2  C    1.391298   0.000000
     3  C    2.417782   1.400431   0.000000
     4  C    2.801042   2.430513   1.404311   0.000000
     5  C    2.421649   2.796706   2.422590   1.400110   0.000000
     6  C    1.400574   2.417382   2.791159   2.420142   1.392275
     7  C    3.773157   2.494412   1.484577   2.504789   3.784941
     8  C    4.298294   3.815093   2.535130   1.497546   2.494144
     9  C    5.179196   4.338571   2.940111   2.552781   3.821905
    10  C    4.970329   3.837034   2.552718   2.892060   4.291867
    11  C    6.192243   4.950799   3.799155   4.276103   5.675673
    12  H    6.351094   5.013513   4.085631   4.854040   6.232574
    13  C    7.375582   6.210621   4.957908   5.149032   6.516880
    14  C    7.531804   6.536607   5.172826   4.986467   6.245999
    15  C    6.581260   5.763816   4.367003   3.881277   5.028409
    16  H    1.086578   2.151337   3.403168   3.887615   3.404996
    17  H    2.167376   1.085073   2.140407   3.401983   3.881402
    18  H    3.414109   3.881236   3.396290   2.140173   1.084771
    19  H    2.159083   3.401128   3.877888   3.403800   2.150405
    20  H    8.327637   7.107500   5.918105   6.202929   7.579850
    21  H    8.573955   7.610521   6.237963   5.964339   7.165322
    22  O    4.998383   4.780550   3.624461   2.355747   2.781695
    23  O    4.206443   2.816915   2.365178   3.620244   4.784630
    24  N    7.280634   6.662195   5.291802   4.503367   5.390319
    25  H    8.268400   7.601563   6.217769   5.491931   6.397102
    26  C    7.122381   6.724266   5.463248   4.474046   5.069008
    27  H    8.156342   7.774167   6.524560   5.551377   6.091699
    28  H    6.556707   6.145113   4.955446   4.076755   4.692364
    29  H    6.818828   6.603959   5.413908   4.230283   4.573128
                    6          7          8          9         10
     6  C    0.000000
     7  C    4.275456   0.000000
     8  C    3.779718   2.939059   0.000000
     9  C    4.969358   2.552139   1.480001   0.000000
    10  C    5.151424   1.497083   2.499531   1.425494   0.000000
    11  C    6.494571   2.458017   3.777575   2.457804   1.389539
    12  H    6.868764   2.610949   4.622541   3.427190   2.133083
    13  C    7.505083   3.753089   4.279686   2.823864   2.406956
    14  C    7.405629   4.271540   3.802360   2.440079   2.776111
    15  C    6.270367   3.839381   2.549132   1.428615   2.450529
    16  H    2.160007   4.644199   5.384810   6.239766   5.940147
    17  H    3.412244   2.671106   4.673684   4.943806   4.155374
    18  H    2.166201   4.642785   2.660365   4.123487   4.886780
    19  H    1.086730   5.362157   4.643765   5.929733   6.208744
    20  H    8.532063   4.616881   5.362080   3.910239   3.394331
    21  H    8.378052   5.359409   4.682085   3.421968   3.864417
    22  O    4.171103   4.155009   1.231458   2.384241   3.619292
    23  O    5.016889   1.227389   4.165601   3.661940   2.376199
    24  N    6.731310   5.028059   3.040247   2.490270   3.745118
    25  H    7.739506   5.819233   4.026779   3.330608   4.438448
    26  C    6.398186   5.522545   3.159248   3.139172   4.486068
    27  H    7.404548   6.531132   4.253541   4.139284   5.433799
    28  H    5.923975   5.053309   2.988300   2.969592   4.174549
    29  H    5.925701   5.721694   2.986806   3.432140   4.845424
                   11         12         13         14         15
    11  C    0.000000
    12  H    1.083763   0.000000
    13  C    1.398040   2.175134   0.000000
    14  C    2.409519   3.401938   1.381848   0.000000
    15  C    2.835588   3.918448   2.448898   1.418402   0.000000
    16  H    7.097670   7.148601   8.334802   8.563363   7.648805
    17  H    5.042294   4.870309   6.394301   6.928144   6.341082
    18  H    6.258308   6.937347   6.920182   6.440800   5.116774
    19  H    7.562974   7.953935   8.538412   8.366491   7.170801
    20  H    2.159640   2.517900   1.086653   2.138538   3.426440
    21  H    3.394122   4.302607   2.141141   1.088533   2.158755
    22  O    4.786414   5.705235   5.042693   4.286435   2.925863
    23  O    2.763632   2.400849   4.161177   4.984261   4.821946
    24  N    4.203685   5.285332   3.663603   2.379978   1.375859
    25  H    4.630909   5.693218   3.801017   2.422259   1.992651
    26  C    5.204731   6.254568   4.881926   3.694769   2.524902
    27  H    6.008506   7.058239   5.506778   4.240201   3.310789
    28  H    4.979156   5.958918   4.861310   3.871009   2.694912
    29  H    5.739251   6.779651   5.551561   4.403247   3.105359
                   16         17         18         19         20
    16  H    0.000000
    17  H    2.504114   0.000000
    18  H    4.313842   4.965696   0.000000
    19  H    2.486708   4.313216   2.499209   0.000000
    20  H    9.251220   7.182756   8.000231   9.577103   0.000000
    21  H    9.616286   8.015324   7.256602   9.305465   2.457738
    22  O    6.061277   5.724421   2.441773   4.824658   6.100162
    23  O    4.870835   2.487364   5.725179   6.083034   4.813220
    24  N    8.362267   7.364720   5.204416   7.501374   4.516353
    25  H    9.349494   8.256688   6.189758   8.508351   4.462975
    26  C    8.176560   7.534775   4.707716   7.033889   5.782845
    27  H    9.197223   8.570151   5.664125   7.988852   6.295208
    28  H    7.578612   6.921337   4.471160   6.589020   5.798408
    29  H    7.861314   7.512317   4.021698   6.449436   6.507088
                   21         22         23         24         25
    21  H    0.000000
    22  O    4.971474   0.000000
    23  O    6.046167   5.377920   0.000000
    24  N    2.569421   2.874348   6.088821   0.000000
    25  H    2.158127   3.830486   6.804562   1.010579   0.000000
    26  C    3.911390   2.737627   6.654321   1.458706   2.078235
    27  H    4.197209   3.775426   7.626565   2.077240   2.202195
    28  H    4.262627   2.886792   6.146132   2.113492   2.819345
    29  H    4.691441   2.183102   6.918301   2.122174   2.813673
                   26         27         28         29
    26  C    0.000000
    27  H    1.094387   0.000000
    28  H    1.097203   1.775979   0.000000
    29  H    1.091250   1.788378   1.770792   0.000000
 Symmetry turned off by external request.
 Stoichiometry    C15H11NO2
 Framework group  C1[X(C15H11NO2)]
 Deg. of freedom    81
 Full point group                 C1      NOp   1
 Rotational constants (GHZ):      0.7193415      0.3690803      0.2507785
 Leave Link  202 at Thu Jun  3 21:09:09 2021, MaxMem=    33554432 cpu:         0.0
 (Enter /opt/app/gaussian09/e01/g09/l301.exe)
 Standard basis: 6-31+G(d) (6D, 7F)
 Ernie: Thresh=  0.10000D-02 Tol=  0.10000D-05 Strict=F.
   364 basis functions,   620 primitive gaussians,   364 cartesian basis functions
    62 alpha electrons       62 beta electrons
       nuclear repulsion energy      1227.0947170103 Hartrees.
 IExCor=  402 DFT=T Ex+Corr=B3LYP ExCW=0 ScaHFX=  0.200000
 ScaDFX=  0.800000  0.720000  1.000000  0.810000 ScalE2=  1.000000  1.000000
 IRadAn=      0 IRanWt=     -1 IRanGd=            0 ICorTp=0 IEmpDi=  4
 NAtoms=   29 NActive=   29 NUniq=   29 SFac= 1.00D+00 NAtFMM=   60 NAOKFM=F Big=F
 Integral buffers will be    131072 words long.
 Regular integral format.
 Two-electron integral symmetry is turned off.
 Leave Link  301 at Thu Jun  3 21:09:10 2021, MaxMem=    33554432 cpu:         0.0
 (Enter /opt/app/gaussian09/e01/g09/l302.exe)
 NPDir=0 NMtPBC=     1 NCelOv=     1 NCel=       1 NClECP=     1 NCelD=      1
         NCelK=      1 NCelE2=     1 NClLst=     1 CellRange=     0.0.
 One-electron integrals computed using PRISM.
 NBasis=   364 RedAO= T EigKep=  1.09D-06  NBF=   364
 NBsUse=   360 1.00D-06 EigRej=  8.20D-07 NBFU=   360
 Precomputing XC quadrature grid using
 IXCGrd= 4 IRadAn=           0 IRanWt=          -1 IRanGd=           0 AccXCQ= 0.00D+00.
 Generated NRdTot=       0 NPtTot=           0 NUsed=           0 NTot=          32
 NSgBfM=   362   362   362   362   362 MxSgAt=    29 MxSgA2=    29.
 Leave Link  302 at Thu Jun  3 21:09:15 2021, MaxMem=    33554432 cpu:         0.9
 (Enter /opt/app/gaussian09/e01/g09/l308.exe)
 Leave Link  308 at Thu Jun  3 21:09:16 2021, MaxMem=    33554432 cpu:         0.1
 (Enter /opt/app/gaussian09/e01/g09/l303.exe)
 DipDrv:  MaxL=1.
 Leave Link  303 at Thu Jun  3 21:09:17 2021, MaxMem=    33554432 cpu:         0.1
 (Enter /opt/app/gaussian09/e01/g09/l401.exe)
 ExpMin= 4.38D-02 ExpMax= 5.48D+03 ExpMxC= 8.25D+02 IAcc=2 IRadAn=         4 AccDes= 0.00D+00
 Harris functional with IExCor=  402 and IRadAn=       4 diagonalized for initial guess.
 HarFok:  IExCor=  402 AccDes= 0.00D+00 IRadAn=         4 IDoV= 1 UseB2=F ITyADJ=14
 ICtDFT=  3500011 ScaDFX=  1.000000  1.000000  1.000000  1.000000
 FoFCou: FMM=F IPFlag=           0 FMFlag=      100000 FMFlg1=           0
         NFxFlg=           0 DoJE=T BraDBF=F KetDBF=T FulRan=T
         wScrn=  0.000000 ICntrl=     500 IOpCl=  0 I1Cent=   200000004 NGrid=           0
         NMat0=    1 NMatS0=      1 NMatT0=    0 NMatD0=    1 NMtDS0=    0 NMtDT0=    0
 Symmetry not used in FoFCou.
 Harris En= -783.436628560880    
 JPrj=0 DoOrth=F DoCkMO=F.
 Leave Link  401 at Thu Jun  3 21:09:31 2021, MaxMem=    33554432 cpu:        12.1
 (Enter /opt/app/gaussian09/e01/g09/l502.exe)
 Closed shell SCF:
 Using DIIS extrapolation, IDIIS=  1040.
 Two-electron integral symmetry not used.
 IVT=      420464 IEndB=      420464 NGot=    33554432 MDV=    33283469
 LenX=    33283469 LenY=    33150532
 Requested convergence on RMS density matrix=1.00D-08 within 128 cycles.
 Requested convergence on MAX density matrix=1.00D-06.
 Requested convergence on             energy=1.00D-06.
 No special actions if energy rises.
 Fock matrices will be formed incrementally for  20 cycles.

 Cycle   1  Pass 1  IDiag  1:
 FoFJK:  IHMeth= 1 ICntrl=       0 DoSepK=F KAlg= 0 I1Cent=   0 FoldK=F
 IRaf= 860000000 NMat=   1 IRICut=       1 DoRegI=T DoRafI=F ISym2E= 0.
 FoFCou: FMM=F IPFlag=           0 FMFlag=      100000 FMFlg1=           0
         NFxFlg=           0 DoJE=F BraDBF=F KetDBF=F FulRan=T
         wScrn=  0.000000 ICntrl=       0 IOpCl=  0 I1Cent=           0 NGrid=           0
         NMat0=    1 NMatS0=      1 NMatT0=    0 NMatD0=    1 NMtDS0=    0 NMtDT0=    0
 Symmetry not used in FoFCou.
 E= -783.095250705600    
 DIIS: error= 1.84D-02 at cycle   1 NSaved=   1.
 NSaved= 1 IEnMin= 1 EnMin= -783.095250705600     IErMin= 1 ErrMin= 1.84D-02
 ErrMax= 1.84D-02  0.00D+00 EMaxC= 1.00D-01 BMatC= 3.83D-01 BMatP= 3.83D-01
 IDIUse=3 WtCom= 8.16D-01 WtEn= 1.84D-01
 Coeff-Com:  0.100D+01
 Coeff-En:   0.100D+01
 Coeff:      0.100D+01
 Gap=     0.115 Goal=   None    Shift=    0.000
 GapD=    0.115 DampG=1.000 DampE=0.500 DampFc=0.5000 IDamp=-1.
 Damping current iteration by 5.00D-01
 RMSDP=1.10D-01 MaxDP=9.64D+00              OVMax= 2.07D-01

 Cycle   2  Pass 1  IDiag  1:
 RMSU=  4.71D-02    CP:  1.22D+00
 E= -783.207698771861     Delta-E=       -0.112448066261 Rises=F Damp=T
 DIIS: error= 7.92D-03 at cycle   2 NSaved=   2.
 NSaved= 2 IEnMin= 2 EnMin= -783.207698771861     IErMin= 2 ErrMin= 7.92D-03
 ErrMax= 7.92D-03  0.00D+00 EMaxC= 1.00D-01 BMatC= 6.71D-02 BMatP= 3.83D-01
 IDIUse=3 WtCom= 9.21D-01 WtEn= 7.92D-02
 Coeff-Com:  0.206D+00 0.794D+00
 Coeff-En:   0.299D+00 0.701D+00
 Coeff:      0.214D+00 0.786D+00
 Gap=     0.168 Goal=   None    Shift=    0.000
 RMSDP=6.00D-02 MaxDP=6.26D+00 DE=-1.12D-01 OVMax= 1.78D-01

 Cycle   3  Pass 1  IDiag  1:
 RMSU=  1.85D-02    CP:  8.11D-01  5.73D-01
 E= -783.387745969972     Delta-E=       -0.180047198111 Rises=F Damp=F
 DIIS: error= 1.00D-02 at cycle   3 NSaved=   3.
 NSaved= 3 IEnMin= 3 EnMin= -783.387745969972     IErMin= 2 ErrMin= 7.92D-03
 ErrMax= 1.00D-02  0.00D+00 EMaxC= 1.00D-01 BMatC= 7.83D-02 BMatP= 6.71D-02
 IDIUse=2 WtCom= 0.00D+00 WtEn= 1.00D+00
 Coeff-En:   0.000D+00 0.000D+00 0.100D+01
 Coeff:      0.000D+00 0.000D+00 0.100D+01
 Gap=     0.118 Goal=   None    Shift=    0.000
 RMSDP=5.42D-02 MaxDP=6.68D+00 DE=-1.80D-01 OVMax= 2.10D-01

 Cycle   4  Pass 1  IDiag  1:
 RMSU=  2.96D-02    CP:  1.08D+00  9.82D-01 -8.60D-02
 E= -782.989728244460     Delta-E=        0.398017725511 Rises=F Damp=F
 DIIS: error= 2.78D-02 at cycle   4 NSaved=   4.
 NSaved= 4 IEnMin= 3 EnMin= -783.387745969972     IErMin= 2 ErrMin= 7.92D-03
 ErrMax= 2.78D-02  0.00D+00 EMaxC= 1.00D-01 BMatC= 5.60D-01 BMatP= 6.71D-02
 IDIUse=2 WtCom= 0.00D+00 WtEn= 1.00D+00
 Coeff-En:   0.000D+00 0.000D+00 0.811D+00 0.189D+00
 Coeff:      0.000D+00 0.000D+00 0.811D+00 0.189D+00
 Gap=     0.141 Goal=   None    Shift=    0.000
 RMSDP=2.84D-02 MaxDP=3.46D+00 DE= 3.98D-01 OVMax= 8.77D-02

 Cycle   5  Pass 1  IDiag  1:
 RMSU=  3.78D-03    CP:  9.27D-01  7.38D-01  3.03D-01  5.47D-01
 E= -783.420312816839     Delta-E=       -0.430584572379 Rises=F Damp=F
 DIIS: error= 7.68D-03 at cycle   5 NSaved=   5.
 NSaved= 5 IEnMin= 5 EnMin= -783.420312816839     IErMin= 5 ErrMin= 7.68D-03
 ErrMax= 7.68D-03  0.00D+00 EMaxC= 1.00D-01 BMatC= 4.37D-02 BMatP= 6.71D-02
 IDIUse=3 WtCom= 9.23D-01 WtEn= 7.68D-02
 Coeff-Com: -0.307D-02 0.329D-01 0.318D+00-0.104D+00 0.756D+00
 Coeff-En:   0.000D+00 0.000D+00 0.389D+00 0.000D+00 0.611D+00
 Coeff:     -0.284D-02 0.303D-01 0.324D+00-0.960D-01 0.745D+00
 Gap=     0.117 Goal=   None    Shift=    0.000
 RMSDP=1.32D-02 MaxDP=1.67D+00 DE=-4.31D-01 OVMax= 3.76D-02

 Cycle   6  Pass 1  IDiag  1:
 RMSU=  1.34D-03    CP:  8.60D-01  6.30D-01  5.37D-01  3.04D-01  9.67D-01
 E= -783.458311713007     Delta-E=       -0.037998896168 Rises=F Damp=F
 DIIS: error= 5.24D-04 at cycle   6 NSaved=   6.
 NSaved= 6 IEnMin= 6 EnMin= -783.458311713007     IErMin= 6 ErrMin= 5.24D-04
 ErrMax= 5.24D-04  0.00D+00 EMaxC= 1.00D-01 BMatC= 1.71D-04 BMatP= 4.37D-02
 IDIUse=3 WtCom= 9.95D-01 WtEn= 5.24D-03
 Coeff-Com: -0.384D-02 0.194D-01 0.177D+00-0.730D-01 0.474D+00 0.406D+00
 Coeff-En:   0.000D+00 0.000D+00 0.000D+00 0.000D+00 0.000D+00 0.100D+01
 Coeff:     -0.382D-02 0.193D-01 0.177D+00-0.726D-01 0.472D+00 0.409D+00
 Gap=     0.117 Goal=   None    Shift=    0.000
 RMSDP=1.30D-03 MaxDP=1.53D-01 DE=-3.80D-02 OVMax= 6.65D-03

 Cycle   7  Pass 1  IDiag  1:
 RMSU=  2.99D-04    CP:  8.65D-01  6.47D-01  5.31D-01  3.13D-01  9.93D-01
                    CP:  5.55D-01
 E= -783.458500117988     Delta-E=       -0.000188404981 Rises=F Damp=F
 DIIS: error= 1.43D-04 at cycle   7 NSaved=   7.
 NSaved= 7 IEnMin= 7 EnMin= -783.458500117988     IErMin= 7 ErrMin= 1.43D-04
 ErrMax= 1.43D-04  0.00D+00 EMaxC= 1.00D-01 BMatC= 1.35D-05 BMatP= 1.71D-04
 IDIUse=3 WtCom= 9.99D-01 WtEn= 1.43D-03
 Coeff-Com: -0.572D-03 0.136D-02 0.442D-01-0.187D-01 0.119D+00 0.210D+00
 Coeff-Com:  0.645D+00
 Coeff-En:   0.000D+00 0.000D+00 0.000D+00 0.000D+00 0.000D+00 0.410D-01
 Coeff-En:   0.959D+00
 Coeff:     -0.571D-03 0.136D-02 0.441D-01-0.187D-01 0.119D+00 0.210D+00
 Coeff:      0.645D+00
 Gap=     0.117 Goal=   None    Shift=    0.000
 RMSDP=2.37D-04 MaxDP=2.27D-02 DE=-1.88D-04 OVMax= 1.48D-03

 Cycle   8  Pass 1  IDiag  1:
 RMSU=  6.41D-05    CP:  8.64D-01  6.44D-01  5.37D-01  3.13D-01  9.80D-01
                    CP:  5.72D-01  7.06D-01
 E= -783.458512824421     Delta-E=       -0.000012706433 Rises=F Damp=F
 DIIS: error= 3.77D-05 at cycle   8 NSaved=   8.
 NSaved= 8 IEnMin= 8 EnMin= -783.458512824421     IErMin= 8 ErrMin= 3.77D-05
 ErrMax= 3.77D-05  0.00D+00 EMaxC= 1.00D-01 BMatC= 1.71D-06 BMatP= 1.35D-05
 IDIUse=1 WtCom= 1.00D+00 WtEn= 0.00D+00
 Coeff-Com:  0.715D-04-0.803D-03 0.185D-01-0.674D-02 0.459D-01 0.108D+00
 Coeff-Com:  0.407D+00 0.428D+00
 Coeff:      0.715D-04-0.803D-03 0.185D-01-0.674D-02 0.459D-01 0.108D+00
 Coeff:      0.407D+00 0.428D+00
 Gap=     0.117 Goal=   None    Shift=    0.000
 RMSDP=6.20D-05 MaxDP=5.23D-03 DE=-1.27D-05 OVMax= 6.27D-04

 Cycle   9  Pass 1  IDiag  1:
 RMSU=  3.87D-05    CP:  8.65D-01  6.45D-01  5.37D-01  3.14D-01  9.76D-01
                    CP:  5.63D-01  7.40D-01  6.97D-01
 E= -783.458514355571     Delta-E=       -0.000001531150 Rises=F Damp=F
 DIIS: error= 1.15D-05 at cycle   9 NSaved=   9.
 NSaved= 9 IEnMin= 9 EnMin= -783.458514355571     IErMin= 9 ErrMin= 1.15D-05
 ErrMax= 1.15D-05  0.00D+00 EMaxC= 1.00D-01 BMatC= 1.45D-07 BMatP= 1.71D-06
 IDIUse=1 WtCom= 1.00D+00 WtEn= 0.00D+00
 Coeff-Com:  0.131D-03-0.569D-03 0.441D-02-0.147D-02 0.997D-02 0.320D-01
 Coeff-Com:  0.138D+00 0.249D+00 0.569D+00
 Coeff:      0.131D-03-0.569D-03 0.441D-02-0.147D-02 0.997D-02 0.320D-01
 Coeff:      0.138D+00 0.249D+00 0.569D+00
 Gap=     0.117 Goal=   None    Shift=    0.000
 RMSDP=2.04D-05 MaxDP=1.33D-03 DE=-1.53D-06 OVMax= 1.49D-04

 Cycle  10  Pass 1  IDiag  1:
 RMSU=  9.10D-06    CP:  8.64D-01  6.44D-01  5.37D-01  3.13D-01  9.77D-01
                    CP:  5.66D-01  7.49D-01  7.20D-01  7.58D-01
 E= -783.458514480361     Delta-E=       -0.000000124790 Rises=F Damp=F
 DIIS: error= 3.24D-06 at cycle  10 NSaved=  10.
 NSaved=10 IEnMin=10 EnMin= -783.458514480361     IErMin=10 ErrMin= 3.24D-06
 ErrMax= 3.24D-06  0.00D+00 EMaxC= 1.00D-01 BMatC= 1.61D-08 BMatP= 1.45D-07
 IDIUse=1 WtCom= 1.00D+00 WtEn= 0.00D+00
 Coeff-Com:  0.610D-04-0.187D-03 0.184D-03-0.104D-03 0.137D-03 0.536D-02
 Coeff-Com:  0.304D-01 0.915D-01 0.327D+00 0.545D+00
 Coeff:      0.610D-04-0.187D-03 0.184D-03-0.104D-03 0.137D-03 0.536D-02
 Coeff:      0.304D-01 0.915D-01 0.327D+00 0.545D+00
 Gap=     0.117 Goal=   None    Shift=    0.000
 RMSDP=3.98D-06 MaxDP=2.92D-04 DE=-1.25D-07 OVMax= 3.01D-05

 Cycle  11  Pass 1  IDiag  1:
 RMSU=  2.31D-06    CP:  8.64D-01  6.44D-01  5.37D-01  3.13D-01  9.77D-01
                    CP:  5.67D-01  7.48D-01  7.21D-01  7.74D-01  9.56D-01
 E= -783.458514493394     Delta-E=       -0.000000013033 Rises=F Damp=F
 DIIS: error= 1.42D-06 at cycle  11 NSaved=  11.
 NSaved=11 IEnMin=11 EnMin= -783.458514493394     IErMin=11 ErrMin= 1.42D-06
 ErrMax= 1.42D-06  0.00D+00 EMaxC= 1.00D-01 BMatC= 1.34D-09 BMatP= 1.61D-08
 IDIUse=1 WtCom= 1.00D+00 WtEn= 0.00D+00
 Coeff-Com:  0.283D-04-0.768D-04-0.238D-03 0.622D-04-0.736D-03 0.902D-03
 Coeff-Com:  0.840D-02 0.368D-01 0.158D+00 0.319D+00 0.478D+00
 Coeff:      0.283D-04-0.768D-04-0.238D-03 0.622D-04-0.736D-03 0.902D-03
 Coeff:      0.840D-02 0.368D-01 0.158D+00 0.319D+00 0.478D+00
 Gap=     0.117 Goal=   None    Shift=    0.000
 RMSDP=2.69D-06 MaxDP=2.44D-04 DE=-1.30D-08 OVMax= 1.67D-05

 Cycle  12  Pass 1  IDiag  1:
 RMSU=  9.90D-07    CP:  8.64D-01  6.44D-01  5.37D-01  3.14D-01  9.77D-01
                    CP:  5.66D-01  7.48D-01  7.18D-01  8.07D-01  9.21D-01
                    CP:  9.06D-01
 E= -783.458514494476     Delta-E=       -0.000000001082 Rises=F Damp=F
 DIIS: error= 7.98D-07 at cycle  12 NSaved=  12.
 NSaved=12 IEnMin=12 EnMin= -783.458514494476     IErMin=12 ErrMin= 7.98D-07
 ErrMax= 7.98D-07  0.00D+00 EMaxC= 1.00D-01 BMatC= 2.25D-10 BMatP= 1.34D-09
 IDIUse=1 WtCom= 1.00D+00 WtEn= 0.00D+00
 Coeff-Com:  0.499D-05-0.974D-05-0.140D-03 0.367D-04-0.357D-03-0.203D-03
 Coeff-Com:  0.737D-04 0.672D-02 0.427D-01 0.102D+00 0.298D+00 0.551D+00
 Coeff:      0.499D-05-0.974D-05-0.140D-03 0.367D-04-0.357D-03-0.203D-03
 Coeff:      0.737D-04 0.672D-02 0.427D-01 0.102D+00 0.298D+00 0.551D+00
 Gap=     0.117 Goal=   None    Shift=    0.000
 RMSDP=1.22D-06 MaxDP=8.70D-05 DE=-1.08D-09 OVMax= 7.43D-06

 Cycle  13  Pass 1  IDiag  1:
 RMSU=  4.04D-07    CP:  8.64D-01  6.44D-01  5.37D-01  3.13D-01  9.77D-01
                    CP:  5.66D-01  7.48D-01  7.19D-01  8.00D-01  9.41D-01
                    CP:  9.14D-01  9.02D-01
 E= -783.458514494682     Delta-E=       -0.000000000206 Rises=F Damp=F
 DIIS: error= 2.31D-07 at cycle  13 NSaved=  13.
 NSaved=13 IEnMin=13 EnMin= -783.458514494682     IErMin=13 ErrMin= 2.31D-07
 ErrMax= 2.31D-07  0.00D+00 EMaxC= 1.00D-01 BMatC= 2.63D-11 BMatP= 2.25D-10
 IDIUse=1 WtCom= 1.00D+00 WtEn= 0.00D+00
 Coeff-Com:  0.479D-06-0.732D-06-0.618D-04 0.206D-04-0.154D-03-0.185D-03
 Coeff-Com: -0.666D-03 0.708D-03 0.110D-01 0.297D-01 0.118D+00 0.319D+00
 Coeff-Com:  0.522D+00
 Coeff:      0.479D-06-0.732D-06-0.618D-04 0.206D-04-0.154D-03-0.185D-03
 Coeff:     -0.666D-03 0.708D-03 0.110D-01 0.297D-01 0.118D+00 0.319D+00
 Coeff:      0.522D+00
 Gap=     0.117 Goal=   None    Shift=    0.000
 RMSDP=3.90D-07 MaxDP=3.26D-05 DE=-2.06D-10 OVMax= 1.94D-06

 Cycle  14  Pass 1  IDiag  1:
 RMSU=  1.04D-07    CP:  8.64D-01  6.44D-01  5.37D-01  3.13D-01  9.77D-01
                    CP:  5.66D-01  7.48D-01  7.20D-01  8.03D-01  9.45D-01
                    CP:  9.26D-01  9.23D-01  7.65D-01
 E= -783.458514494692     Delta-E=       -0.000000000010 Rises=F Damp=F
 DIIS: error= 4.77D-08 at cycle  14 NSaved=  14.
 NSaved=14 IEnMin=14 EnMin= -783.458514494692     IErMin=14 ErrMin= 4.77D-08
 ErrMax= 4.77D-08  0.00D+00 EMaxC= 1.00D-01 BMatC= 2.46D-12 BMatP= 2.63D-11
 IDIUse=1 WtCom= 1.00D+00 WtEn= 0.00D+00
 Coeff-Com: -0.111D-05 0.250D-05-0.740D-05 0.229D-05-0.964D-05-0.499D-04
 Coeff-Com: -0.353D-03-0.805D-03-0.125D-02-0.190D-02 0.659D-02 0.765D-01
 Coeff-Com:  0.246D+00 0.676D+00
 Coeff:     -0.111D-05 0.250D-05-0.740D-05 0.229D-05-0.964D-05-0.499D-04
 Coeff:     -0.353D-03-0.805D-03-0.125D-02-0.190D-02 0.659D-02 0.765D-01
 Coeff:      0.246D+00 0.676D+00
 Gap=     0.117 Goal=   None    Shift=    0.000
 RMSDP=1.16D-07 MaxDP=1.30D-05 DE=-9.78D-12 OVMax= 8.09D-07

 Cycle  15  Pass 1  IDiag  1:
 RMSU=  3.78D-08    CP:  8.64D-01  6.44D-01  5.37D-01  3.13D-01  9.77D-01
                    CP:  5.66D-01  7.48D-01  7.19D-01  8.04D-01  9.47D-01
                    CP:  9.32D-01  9.31D-01  7.82D-01  9.08D-01
 E= -783.458514494694     Delta-E=       -0.000000000002 Rises=F Damp=F
 DIIS: error= 3.21D-08 at cycle  15 NSaved=  15.
 NSaved=15 IEnMin=15 EnMin= -783.458514494694     IErMin=15 ErrMin= 3.21D-08
 ErrMax= 3.21D-08  0.00D+00 EMaxC= 1.00D-01 BMatC= 4.22D-13 BMatP= 2.46D-12
 IDIUse=1 WtCom= 1.00D+00 WtEn= 0.00D+00
 Coeff-Com: -0.762D-06 0.171D-05 0.104D-06-0.219D-06 0.602D-05-0.181D-04
 Coeff-Com: -0.163D-03-0.602D-03-0.182D-02-0.420D-02-0.906D-02 0.152D-01
 Coeff-Com:  0.874D-01 0.414D+00 0.499D+00
 Coeff:     -0.762D-06 0.171D-05 0.104D-06-0.219D-06 0.602D-05-0.181D-04
 Coeff:     -0.163D-03-0.602D-03-0.182D-02-0.420D-02-0.906D-02 0.152D-01
 Coeff:      0.874D-01 0.414D+00 0.499D+00
 Gap=     0.117 Goal=   None    Shift=    0.000
 RMSDP=5.48D-08 MaxDP=4.45D-06 DE=-2.05D-12 OVMax= 2.59D-07

 Cycle  16  Pass 1  IDiag  1:
 RMSU=  1.66D-08    CP:  8.64D-01  6.44D-01  5.37D-01  3.14D-01  9.77D-01
                    CP:  5.66D-01  7.48D-01  7.19D-01  8.04D-01  9.47D-01
                    CP:  9.35D-01  9.43D-01  7.80D-01  9.24D-01  6.85D-01
 E= -783.458514494677     Delta-E=        0.000000000017 Rises=F Damp=F
 DIIS: error= 7.08D-09 at cycle  16 NSaved=  16.
 NSaved=16 IEnMin=15 EnMin= -783.458514494694     IErMin=16 ErrMin= 7.08D-09
 ErrMax= 7.08D-09  0.00D+00 EMaxC= 1.00D-01 BMatC= 4.09D-14 BMatP= 4.22D-13
 IDIUse=1 WtCom= 1.00D+00 WtEn= 0.00D+00
 Coeff-Com: -0.252D-06 0.585D-06 0.139D-05-0.604D-06 0.536D-05-0.244D-05
 Coeff-Com: -0.308D-04-0.223D-03-0.763D-03-0.209D-02-0.677D-02-0.368D-02
 Coeff-Com:  0.562D-02 0.130D+00 0.271D+00 0.607D+00
 Coeff:     -0.252D-06 0.585D-06 0.139D-05-0.604D-06 0.536D-05-0.244D-05
 Coeff:     -0.308D-04-0.223D-03-0.763D-03-0.209D-02-0.677D-02-0.368D-02
 Coeff:      0.562D-02 0.130D+00 0.271D+00 0.607D+00
 Gap=     0.117 Goal=   None    Shift=    0.000
 RMSDP=1.40D-08 MaxDP=1.07D-06 DE= 1.73D-11 OVMax= 1.14D-07

 Cycle  17  Pass 1  IDiag  1:
 RMSU=  5.42D-09    CP:  8.64D-01  6.44D-01  5.37D-01  3.14D-01  9.77D-01
                    CP:  5.66D-01  7.48D-01  7.19D-01  8.04D-01  9.47D-01
                    CP:  9.36D-01  9.46D-01  7.88D-01  9.24D-01  7.04D-01
                    CP:  9.76D-01
 E= -783.458514494690     Delta-E=       -0.000000000013 Rises=F Damp=F
 DIIS: error= 1.79D-09 at cycle  17 NSaved=  17.
 NSaved=17 IEnMin=15 EnMin= -783.458514494694     IErMin=17 ErrMin= 1.79D-09
 ErrMax= 1.79D-09  0.00D+00 EMaxC= 1.00D-01 BMatC= 4.51D-15 BMatP= 4.09D-14
 IDIUse=1 WtCom= 1.00D+00 WtEn= 0.00D+00
 Coeff-Com: -0.291D-07 0.599D-07 0.871D-06-0.291D-06 0.228D-05 0.949D-06
 Coeff-Com:  0.572D-05-0.477D-04-0.172D-03-0.598D-03-0.247D-02-0.317D-02
 Coeff-Com: -0.659D-02 0.225D-01 0.745D-01 0.288D+00 0.628D+00
 Coeff:     -0.291D-07 0.599D-07 0.871D-06-0.291D-06 0.228D-05 0.949D-06
 Coeff:      0.572D-05-0.477D-04-0.172D-03-0.598D-03-0.247D-02-0.317D-02
 Coeff:     -0.659D-02 0.225D-01 0.745D-01 0.288D+00 0.628D+00
 Gap=     0.117 Goal=   None    Shift=    0.000
 RMSDP=5.21D-09 MaxDP=3.48D-07 DE=-1.34D-11 OVMax= 2.08D-08

 SCF Done:  E(RB3LYP) =  -783.458514495     A.U. after   17 cycles
            NFock= 17  Conv=0.52D-08     -V/T= 2.0095
 KE= 7.761208697764D+02 PE=-4.274629466983D+03 EE= 1.487955365702D+03
 Leave Link  502 at Thu Jun  3 21:26:09 2021, MaxMem=    33554432 cpu:       995.1
 (Enter /opt/app/gaussian09/e01/g09/l801.exe)
 DoSCS=F DFT=T ScalE2(SS,OS)=  1.000000  1.000000
 ExpMin= 4.38D-02 ExpMax= 5.48D+03 ExpMxC= 8.25D+02 IAcc=3 IRadAn=         5 AccDes= 0.00D+00
 HarFok:  IExCor=  205 AccDes= 0.00D+00 IRadAn=         5 IDoV=-2 UseB2=F ITyADJ=14
 ICtDFT= 12500011 ScaDFX=  1.000000  1.000000  1.000000  1.000000
 Largest valence mixing into a core orbital is  5.68D-05
 Largest core mixing into a valence orbital is  1.28D-05
 Range of M.O.s used for correlation:    19   360
 NBasis=   364 NAE=    62 NBE=    62 NFC=    18 NFV=     0
 NROrb=    342 NOA=    44 NOB=    44 NVA=   298 NVB=   298

 **** Warning!!: The largest alpha MO coefficient is  0.16862850D+03

 Leave Link  801 at Thu Jun  3 21:26:12 2021, MaxMem=    33554432 cpu:         1.3
 (Enter /opt/app/gaussian09/e01/g09/l914.exe)
 RHF ground state
 MDV=    33554432 DFT=T DoStab=F Mixed=T DoRPA=T DoScal=F NonHer=T
 Would need an additional          6629700000 words for in-memory AO integral storage.
 Making orbital integer symmetry assigments:
    40 initial guesses have been made.
 Convergence on wavefunction:    0.001000000000000
 Davidson Disk Diagonalization:  ConvIn= 1.00D-03 SkipCon=T Conv= 1.00D-03.
 Max sub-space:   200 roots to seek:    40 dimension of matrix:        26224
 Iteration     1 Dimension    40 NMult     0 NNew     40
 CISAX will form    40 AO SS matrices at one time.
 NMat=    40 NSing=    40 JSym2X= 0.
 FoFJK:  IHMeth= 1 ICntrl=       0 DoSepK=F KAlg= 0 I1Cent=   0 FoldK=F
 IRaf=         0 NMat=  80 IRICut=     100 DoRegI=T DoRafI=T ISym2E= 0.
 FoFCou: FMM=F IPFlag=           0 FMFlag=      100000 FMFlg1=           0
         NFxFlg=           0 DoJE=F BraDBF=F KetDBF=F FulRan=T
         wScrn=  0.000000 ICntrl=       0 IOpCl=  0 I1Cent=           0 NGrid=           0
         NMat0=   80 NMatS0=     40 NMatT0=    0 NMatD0=   80 NMtDS0=    0 NMtDT0=    0
 Symmetry not used in FoFCou.
 New state      3 was old state      6
 New state      6 was old state      3
 New state      7 was old state      9
 New state      9 was old state      7
 New state     10 was old state     14
 Excitation Energies [eV] at current iteration:
 Root      1 :     2.911764432811213
 Root      2 :     3.131231174693056
 Root      3 :     3.324829758801649
 Root      4 :     3.904373802923292
 Root      5 :     4.061440458986739
 Root      6 :     4.134923603136699
 Root      7 :     4.523545320536652
 Root      8 :     4.758533765283413
 Root      9 :     4.772433504789176
 Root     10 :     4.824855666726705
 Root     11 :     4.958834023587680
 Root     12 :     5.151361683453628
 Root     13 :     5.336459308136174
 Root     14 :     5.393864247666928
 Root     15 :     5.495791986479575
 Root     16 :     5.621314570846160
 Root     17 :     5.671293660518124
 Root     18 :     5.721440447741827
 Root     19 :     5.725972046417328
 Root     20 :     5.826141462333267
 Root     21 :     5.936802759420593
 Root     22 :     5.966547591405575
 Root     23 :     6.064290408217512
 Root     24 :     6.136396595429191
 Root     25 :     6.153639784313668
 Root     26 :     6.189484371044723
 Root     27 :     6.268764919099937
 Root     28 :     6.377500764731890
 Root     29 :     6.408959757713212
 Root     30 :     6.480751039325392
 Root     31 :     6.485510197118535
 Root     32 :     6.524824901330766
 Root     33 :     6.578511464243765
 Root     34 :     6.654459548023342
 Root     35 :     6.724180231830256
 Root     36 :     7.036103034896454
 Root     37 :     7.084555971420619
 Root     38 :     7.292926254893650
 Root     39 :     7.728450749924497
 Root     40 :     7.814084142622735
 Iteration     2 Dimension    60 NMult    40 NNew     20
 CISAX will form    20 AO SS matrices at one time.
 NMat=    20 NSing=    20 JSym2X= 0.
 Root      1 not converged, maximum delta is    0.125661906166868
 Root      2 not converged, maximum delta is    0.105813105491930
 Root      3 not converged, maximum delta is    0.034197524026995
 Root      4 not converged, maximum delta is    0.068143096978360
 Root      5 not converged, maximum delta is    0.124901214486166
 Root      6 not converged, maximum delta is    0.101394812958473
 Root      7 not converged, maximum delta is    0.230415405251127
 Root      8 not converged, maximum delta is    0.399269171885245
 Root      9 not converged, maximum delta is    0.297012078016578
 Root     10 not converged, maximum delta is    0.086592507715959
 Excitation Energies [eV] at current iteration:
 Root      1 :     2.722011006979213   Change is   -0.189753425832000
 Root      2 :     3.037404333893155   Change is   -0.093826840799901
 Root      3 :     3.246235741597701   Change is   -0.078594017203949
 Root      4 :     3.724742647383105   Change is   -0.179631155540186
 Root      5 :     3.905300096938173   Change is   -0.156140362048565
 Root      6 :     3.955775977961368   Change is   -0.179147625175331
 Root      7 :     4.480768240130537   Change is   -0.042777080406114
 Root      8 :     4.500849749872698   Change is   -0.257684015410715
 Root      9 :     4.565925381556822   Change is   -0.206508123232354
 Root     10 :     4.780961072700312   Change is   -0.043894594026394
 Iteration     3 Dimension    80 NMult    60 NNew     20
 CISAX will form    20 AO SS matrices at one time.
 NMat=    20 NSing=    20 JSym2X= 0.
 Root      1 not converged, maximum delta is    0.007893481007801
 Root      2 not converged, maximum delta is    0.004408513373011
 Root      3 not converged, maximum delta is    0.002279175393254
 Root      4 not converged, maximum delta is    0.004476269553415
 Root      5 not converged, maximum delta is    0.024335812578863
 Root      6 not converged, maximum delta is    0.016253524672936
 Root      7 not converged, maximum delta is    0.365986380640200
 Root      8 not converged, maximum delta is    0.334243822130582
 Root      9 not converged, maximum delta is    0.024692721951576
 Root     10 not converged, maximum delta is    0.007273121555268
 Excitation Energies [eV] at current iteration:
 Root      1 :     2.710532824494289   Change is   -0.011478182484925
 Root      2 :     3.034241690197836   Change is   -0.003162643695319
 Root      3 :     3.244171181576282   Change is   -0.002064560021418
 Root      4 :     3.719151323798953   Change is   -0.005591323584152
 Root      5 :     3.893312558476762   Change is   -0.011987538461412
 Root      6 :     3.944605679536533   Change is   -0.011170298424836
 Root      7 :     4.464394967085796   Change is   -0.016373273044741
 Root      8 :     4.485237901065243   Change is   -0.015611848807456
 Root      9 :     4.551021270623390   Change is   -0.014904110933431
 Root     10 :     4.778951958964736   Change is   -0.002009113735576
 Iteration     4 Dimension   100 NMult    80 NNew     20
 CISAX will form    20 AO SS matrices at one time.
 NMat=    20 NSing=    20 JSym2X= 0.
 Root      1 has converged.
 Root      2 has converged.
 Root      3 has converged.
 Root      4 not converged, maximum delta is    0.001455204990846
 Root      5 not converged, maximum delta is    0.002004995814156
 Root      6 not converged, maximum delta is    0.001492121879509
 Root      7 not converged, maximum delta is    0.025029930515895
 Root      8 not converged, maximum delta is    0.023434069329525
 Root      9 not converged, maximum delta is    0.001662829581728
 Root     10 not converged, maximum delta is    0.001750287412391
 Excitation Energies [eV] at current iteration:
 Root      1 :     2.709915533043505   Change is   -0.000617291450783
 Root      2 :     3.034061082067994   Change is   -0.000180608129842
 Root      3 :     3.243930692610725   Change is   -0.000240488965557
 Root      4 :     3.718444782466108   Change is   -0.000706541332845
 Root      5 :     3.892500366804951   Change is   -0.000812191671810
 Root      6 :     3.943806815551598   Change is   -0.000798863984934
 Root      7 :     4.461981557055575   Change is   -0.002413410030221
 Root      8 :     4.484710712369327   Change is   -0.000527188695915
 Root      9 :     4.549725448956352   Change is   -0.001295821667038
 Root     10 :     4.778803265724897   Change is   -0.000148693239838
 Iteration     5 Dimension   114 NMult   100 NNew     14
 CISAX will form    14 AO SS matrices at one time.
 NMat=    14 NSing=    14 JSym2X= 0.
 Root      1 has converged.
 Root      2 has converged.
 Root      3 has converged.
 Root      4 has converged.
 Root      5 has converged.
 Root      6 has converged.
 Root      7 not converged, maximum delta is    0.002232888678048
 Root      8 not converged, maximum delta is    0.002061476229997
 Root      9 has converged.
 Root     10 has converged.
 Excitation Energies [eV] at current iteration:
 Root      1 :     2.709908863601337   Change is   -0.000006669442169
 Root      2 :     3.034058823343187   Change is   -0.000002258724806
 Root      3 :     3.243925831805672   Change is   -0.000004860805053
 Root      4 :     3.718413341516042   Change is   -0.000031440950066
 Root      5 :     3.892446450479345   Change is   -0.000053916325606
 Root      6 :     3.943754143683489   Change is   -0.000052671868109
 Root      7 :     4.461728662730773   Change is   -0.000252894324802
 Root      8 :     4.484672482752700   Change is   -0.000038229616627
 Root      9 :     4.549611442910447   Change is   -0.000114006045905
 Root     10 :     4.778792932559449   Change is   -0.000010333165448
 Iteration     6 Dimension   118 NMult   114 NNew      4
 CISAX will form     4 AO SS matrices at one time.
 NMat=     4 NSing=     4 JSym2X= 0.
 Root      1 has converged.
 Root      2 has converged.
 Root      3 has converged.
 Root      4 has converged.
 Root      5 has converged.
 Root      6 has converged.
 Root      7 has converged.
 Root      8 has converged.
 Root      9 has converged.
 Root     10 has converged.
 Excitation Energies [eV] at current iteration:
 Root      1 :     2.709908606508200   Change is   -0.000000257093137
 Root      2 :     3.034058688873870   Change is   -0.000000134469317
 Root      3 :     3.243925526909739   Change is   -0.000000304895933
 Root      4 :     3.718413297240523   Change is   -0.000000044275518
 Root      5 :     3.892446400045100   Change is   -0.000000050434245
 Root      6 :     3.943753674881927   Change is   -0.000000468801562
 Root      7 :     4.461712281618061   Change is   -0.000016381112713
 Root      8 :     4.484669945944512   Change is   -0.000002536808188
 Root      9 :     4.549611312504902   Change is   -0.000000130405545
 Root     10 :     4.778792784830798   Change is   -0.000000147728651
 Convergence achieved on expansion vectors.
 ***********************************************************************
 Excited states from <AA,BB:AA,BB> singles matrix:
 ***********************************************************************
 
 1PDM for each excited state written to RWF  633
 Ground to excited state transition densities written to RWF  633
 Ground to excited state transition electric dipole moments (Au):
       state          X           Y           Z        Dip. S.      Osc.
         1        -1.1293     -0.0853     -0.0449      1.2846      0.0853
         2        -0.4443     -0.0324     -0.0132      0.1986      0.0148
         3        -0.0606     -0.0056      0.0054      0.0037      0.0003
         4        -0.0098     -0.1459      0.0185      0.0217      0.0020
         5         0.3312      0.2592     -0.0909      0.1852      0.0177
         6        -0.8785      0.2103     -0.1030      0.8265      0.0799
         7         0.2016     -0.9949     -0.1300      1.0474      0.1145
         8        -0.0216     -0.2859     -0.0587      0.0857      0.0094
         9        -0.1694      0.0618      0.0363      0.0338      0.0038
        10         0.2139      0.1131     -0.0067      0.0586      0.0069
 Ground to excited state transition velocity dipole moments (Au):
       state          X           Y           Z        Dip. S.      Osc.
         1         0.1144      0.0103      0.0049      0.0132      0.0885
         2         0.0499      0.0045      0.0012      0.0025      0.0150
         3         0.0072      0.0012     -0.0007      0.0001      0.0003
         4         0.0011      0.0208     -0.0025      0.0004      0.0021
         5        -0.0486     -0.0382      0.0132      0.0040      0.0186
         6         0.1274     -0.0329      0.0144      0.0175      0.0806
         7        -0.0312      0.1529      0.0194      0.0247      0.1005
         8         0.0060      0.0444      0.0104      0.0021      0.0086
         9         0.0298     -0.0048     -0.0045      0.0009      0.0037
        10        -0.0370     -0.0201      0.0004      0.0018      0.0067
 Ground to excited state transition magnetic dipole moments (Au):
       state          X           Y           Z
         1        -0.0959      0.1412     -0.0735
         2         0.1558     -0.7453     -0.2143
         3        -0.0335      0.0276      0.0638
         4        -0.0589      0.1639     -1.2419
         5        -0.0147     -0.0303     -0.3601
         6        -0.0832     -0.0160     -0.9087
         7         0.0640      0.0622     -0.1461
         8         0.0248     -0.1952     -0.4205
         9        -0.0660     -0.0022     -0.7182
        10        -0.1047      0.4213      0.2707
 Ground to excited state transition velocity quadrupole moments (Au):
       state          XX          YY          ZZ          XY          XZ          YZ
         1         0.2711      0.0408      0.0033      0.1023      0.0057     -0.0712
         2         0.0593      0.0177      0.0081      0.0104      0.0463     -0.0181
         3        -0.0498      0.0134      0.0101      0.0085      0.0021     -0.0036
         4         0.1308     -0.1418      0.0034     -0.0444     -0.0419      0.0205
         5         0.7093     -0.1593      0.0111     -0.1053     -0.0012     -0.0553
         6        -0.1295      0.0356      0.0015     -0.6453      0.0333     -0.0583
         7        -0.0226      0.2567     -0.0323     -0.1222     -0.0387     -0.0321
         8        -0.0275      0.0741      0.0056     -0.1980      0.0044     -0.0157
         9         0.4630     -0.0161      0.0053      0.1204     -0.0081     -0.0109
        10         0.0797     -0.0467     -0.0029      0.0555     -0.0097      0.0041
 <0|del|b> * <b|rxdel|0> + <0|del|b> * <b|delr+rdel|0>
 Rotatory Strengths (R) in cgs (10**-40 erg-esu-cm/Gauss)
       state          XX          YY          ZZ    R(velocity)    E-M Angle
         1         5.4395    -70.9102     -4.6907    -23.3871      117.53
         2       -11.9965     20.8997     17.6051      8.8361       83.94
         3        -0.0583     -0.9030     -0.5345     -0.4986      116.56
         4        19.5308      7.7831      6.3239     11.2126       75.67
         5       -12.4172      0.1083     -1.9064     -4.7384       97.22
         6       -50.4859    -53.2090     -9.1076    -37.6008      101.03
         7        22.0445     -3.1453      1.2700      6.7231       79.99
         8       -32.7816     -4.8361    -17.6660    -18.4279      127.10
         9         5.6385      3.1486     -3.3700      1.8057       86.67
        10       -17.1320      7.6899     -8.5325     -5.9915      101.96
 1/2[<0|r|b>*<b|rxdel|0> + (<0|rxdel|b>*<b|r|0>)*]
 Rotatory Strengths (R) in cgs (10**-40 erg-esu-cm/Gauss)
       state          XX          YY          ZZ     R(length)
         1       -76.5945      8.5175     -2.3341    -23.4704
         2        48.9489    -17.0729     -1.9983      9.9593
         3        -1.4361      0.1097     -0.2417     -0.5227
         4        -0.4071     16.9073     16.2782     10.9261
         5         3.4367      5.5531    -23.1440     -4.7181
         6       -51.6702      2.3822    -66.1898    -38.4926
         7        -9.1257     43.7669    -13.4234      7.0726
         8         0.3780    -39.4721    -17.4688    -18.8543
         9        -7.9046      0.0964     18.4403      3.5440
        10        15.8262    -33.6933      1.2730     -5.5314
  1/2[<0|del|b>*<b|r|0> + (<0|r|b>*<b|del|0>)*] (Au)
       state          X           Y           Z        Dip. S.   Osc.(frdel)
         1        -0.1292     -0.0009     -0.0002      0.1303      0.0869
         2        -0.0222     -0.0001     -0.0000      0.0223      0.0149
         3        -0.0004     -0.0000     -0.0000      0.0004      0.0003
         4        -0.0000     -0.0030     -0.0000      0.0031      0.0021
         5        -0.0161     -0.0099     -0.0012      0.0272      0.0181
         6        -0.1119     -0.0069     -0.0015      0.1203      0.0802
         7        -0.0063     -0.1521     -0.0025      0.1609      0.1073
         8        -0.0001     -0.0127     -0.0006      0.0134      0.0090
         9        -0.0051     -0.0003     -0.0002      0.0055      0.0037
        10        -0.0079     -0.0023     -0.0000      0.0102      0.0068

 Excitation energies and oscillator strengths:
 
 Excited state symmetry could not be determined.
 Excited State   1:      Singlet-?Sym    2.7099 eV  457.52 nm  f=0.0853  <S**2>=0.000
      61 -> 63        -0.14027
      62 -> 63         0.68567
 This state for optimization and/or second-order correction.
 Total Energy, E(TD-HF/TD-KS) =  -783.358927182    
 Copying the excited state density for this state as the 1-particle RhoCI density.
 
 Excited state symmetry could not be determined.
 Excited State   2:      Singlet-?Sym    3.0341 eV  408.64 nm  f=0.0148  <S**2>=0.000
      61 -> 63         0.66357
      62 -> 63         0.14768
 
 Excited state symmetry could not be determined.
 Excited State   3:      Singlet-?Sym    3.2439 eV  382.20 nm  f=0.0003  <S**2>=0.000
      58 -> 63         0.47757
      60 -> 63        -0.47119
      61 -> 63         0.11433
      61 -> 64         0.15930
 
 Excited state symmetry could not be determined.
 Excited State   4:      Singlet-?Sym    3.7184 eV  333.43 nm  f=0.0020  <S**2>=0.000
      58 -> 63         0.35251
      59 -> 63        -0.34802
      60 -> 63         0.41796
      62 -> 64        -0.26903
 
 Excited state symmetry could not be determined.
 Excited State   5:      Singlet-?Sym    3.8924 eV  318.53 nm  f=0.0177  <S**2>=0.000
      58 -> 63         0.33961
      59 -> 63         0.44015
      60 -> 63         0.26676
      62 -> 64         0.29868
 
 Excited state symmetry could not be determined.
 Excited State   6:      Singlet-?Sym    3.9438 eV  314.38 nm  f=0.0799  <S**2>=0.000
      59 -> 63        -0.38977
      62 -> 64         0.57135
 
 Excited state symmetry could not be determined.
 Excited State   7:      Singlet-?Sym    4.4617 eV  277.88 nm  f=0.1145  <S**2>=0.000
      56 -> 63        -0.10175
      57 -> 63         0.63319
      61 -> 64        -0.20272
      62 -> 66         0.11805
 
 Excited state symmetry could not be determined.
 Excited State   8:      Singlet-?Sym    4.4847 eV  276.46 nm  f=0.0094  <S**2>=0.000
      57 -> 63         0.19143
      58 -> 63        -0.11379
      58 -> 64         0.10976
      61 -> 64         0.63824
 
 Excited state symmetry could not be determined.
 Excited State   9:      Singlet-?Sym    4.5496 eV  272.52 nm  f=0.0038  <S**2>=0.000
      62 -> 65         0.67772
 
 Excited state symmetry could not be determined.
 Excited State  10:      Singlet-?Sym    4.7788 eV  259.45 nm  f=0.0069  <S**2>=0.000
      56 -> 63        -0.10568
      58 -> 64        -0.44282
      60 -> 64         0.50801
 SavETr:  write IOETrn=   770 NScale= 10 NData=  16 NLR=1 NState=   10 LETran=     190.
 Leave Link  914 at Thu Jun  3 22:17:03 2021, MaxMem=    33554432 cpu:      3045.9
 (Enter /opt/app/gaussian09/e01/g09/l601.exe)
 Copying SCF densities to generalized density rwf, IOpCl= 0 IROHF=0.

 **********************************************************************

            Population analysis using the SCF density.

 **********************************************************************

 Alpha  occ. eigenvalues --  -19.14946 -19.14490 -14.37413 -10.28696 -10.28598
 Alpha  occ. eigenvalues --  -10.26228 -10.22223 -10.21874 -10.21787 -10.21750
 Alpha  occ. eigenvalues --  -10.21589 -10.21578 -10.21462 -10.21428 -10.21355
 Alpha  occ. eigenvalues --  -10.21003 -10.20907 -10.20200  -1.04838  -1.04477
 Alpha  occ. eigenvalues --   -0.95769  -0.88298  -0.86756  -0.80591  -0.77162
 Alpha  occ. eigenvalues --   -0.76887  -0.76495  -0.70403  -0.67578  -0.66135
 Alpha  occ. eigenvalues --   -0.63683  -0.60825  -0.57881  -0.56377  -0.55255
 Alpha  occ. eigenvalues --   -0.51339  -0.50077  -0.48939  -0.47967  -0.47637
 Alpha  occ. eigenvalues --   -0.45825  -0.45430  -0.44495  -0.44391  -0.43494
 Alpha  occ. eigenvalues --   -0.43131  -0.42284  -0.40954  -0.39462  -0.39284
 Alpha  occ. eigenvalues --   -0.38618  -0.38175  -0.36920  -0.36077  -0.35845
 Alpha  occ. eigenvalues --   -0.31292  -0.27913  -0.27165  -0.26988  -0.26777
 Alpha  occ. eigenvalues --   -0.25892  -0.22160
 Alpha virt. eigenvalues --   -0.10437  -0.05983  -0.03054  -0.01498  -0.00792
 Alpha virt. eigenvalues --    0.00638   0.01345   0.01847   0.02706   0.03303
 Alpha virt. eigenvalues --    0.03716   0.03920   0.04413   0.04798   0.05128
 Alpha virt. eigenvalues --    0.05878   0.06044   0.06592   0.07067   0.07234
 Alpha virt. eigenvalues --    0.08088   0.08733   0.09208   0.09352   0.10393
 Alpha virt. eigenvalues --    0.10716   0.11130   0.11500   0.12276   0.12699
 Alpha virt. eigenvalues --    0.13000   0.14031   0.14339   0.14992   0.15294
 Alpha virt. eigenvalues --    0.15706   0.16027   0.16415   0.16710   0.17265
 Alpha virt. eigenvalues --    0.17617   0.17899   0.18017   0.18570   0.18912
 Alpha virt. eigenvalues --    0.19228   0.19553   0.20293   0.20716   0.20949
 Alpha virt. eigenvalues --    0.21247   0.21442   0.21606   0.21950   0.22158
 Alpha virt. eigenvalues --    0.22571   0.22986   0.23425   0.23628   0.24484
 Alpha virt. eigenvalues --    0.24743   0.24830   0.25314   0.25796   0.25864
 Alpha virt. eigenvalues --    0.26381   0.27045   0.27458   0.27916   0.28336
 Alpha virt. eigenvalues --    0.28614   0.28860   0.29027   0.29253   0.29818
 Alpha virt. eigenvalues --    0.30496   0.30690   0.31581   0.32528   0.32587
 Alpha virt. eigenvalues --    0.33024   0.33408   0.33651   0.34074   0.35042
 Alpha virt. eigenvalues --    0.35805   0.35979   0.37318   0.37604   0.38247
 Alpha virt. eigenvalues --    0.38689   0.40129   0.40495   0.40928   0.41036
 Alpha virt. eigenvalues --    0.42689   0.43692   0.45190   0.45760   0.47164
 Alpha virt. eigenvalues --    0.49664   0.50209   0.53766   0.59152   0.60843
 Alpha virt. eigenvalues --    0.63356   0.65337   0.66583   0.67217   0.67873
 Alpha virt. eigenvalues --    0.68374   0.68815   0.69454   0.69929   0.70622
 Alpha virt. eigenvalues --    0.72463   0.72763   0.73058   0.73717   0.74057
 Alpha virt. eigenvalues --    0.75033   0.75205   0.75544   0.77315   0.78136
 Alpha virt. eigenvalues --    0.78643   0.78984   0.79887   0.80642   0.81477
 Alpha virt. eigenvalues --    0.82451   0.84557   0.85950   0.87086   0.88745
 Alpha virt. eigenvalues --    0.89499   0.89953   0.92025   0.92816   0.92992
 Alpha virt. eigenvalues --    0.94177   0.94872   0.96251   0.98364   1.00210
 Alpha virt. eigenvalues --    1.01586   1.02081   1.02746   1.03465   1.06395
 Alpha virt. eigenvalues --    1.06594   1.07991   1.09883   1.11210   1.11267
 Alpha virt. eigenvalues --    1.12824   1.14185   1.15178   1.15278   1.16562
 Alpha virt. eigenvalues --    1.17538   1.18829   1.19923   1.20645   1.22299
 Alpha virt. eigenvalues --    1.22781   1.23370   1.24328   1.25349   1.26457
 Alpha virt. eigenvalues --    1.27237   1.28705   1.30536   1.32088   1.33426
 Alpha virt. eigenvalues --    1.34062   1.34527   1.35451   1.35815   1.37446
 Alpha virt. eigenvalues --    1.38113   1.40566   1.41128   1.43302   1.44624
 Alpha virt. eigenvalues --    1.44806   1.45680   1.46483   1.47155   1.47887
 Alpha virt. eigenvalues --    1.48203   1.49941   1.50503   1.51717   1.54572
 Alpha virt. eigenvalues --    1.60093   1.61626   1.64334   1.67530   1.68765
 Alpha virt. eigenvalues --    1.71488   1.73912   1.75403   1.76927   1.79368
 Alpha virt. eigenvalues --    1.80554   1.81153   1.83259   1.83470   1.86104
 Alpha virt. eigenvalues --    1.86294   1.88866   1.89947   1.92203   1.93473
 Alpha virt. eigenvalues --    1.94788   1.96009   1.98528   1.99269   2.00359
 Alpha virt. eigenvalues --    2.00406   2.04408   2.05445   2.06348   2.07316
 Alpha virt. eigenvalues --    2.08644   2.10724   2.11348   2.13335   2.15386
 Alpha virt. eigenvalues --    2.16408   2.17243   2.18551   2.20577   2.22234
 Alpha virt. eigenvalues --    2.23603   2.25539   2.27232   2.27312   2.28048
 Alpha virt. eigenvalues --    2.28680   2.30140   2.32172   2.36358   2.38867
 Alpha virt. eigenvalues --    2.42088   2.43896   2.45855   2.46642   2.49502
 Alpha virt. eigenvalues --    2.52458   2.55449   2.55749   2.56584   2.59612
 Alpha virt. eigenvalues --    2.60305   2.64486   2.66260   2.68461   2.70910
 Alpha virt. eigenvalues --    2.71296   2.71726   2.73195   2.74728   2.77760
 Alpha virt. eigenvalues --    2.79491   2.81846   2.84288   2.86589   2.89330
 Alpha virt. eigenvalues --    2.95516   2.99833   3.02998   3.08027   3.18759
 Alpha virt. eigenvalues --    3.22163   3.25106   3.34593   3.41747   3.48621
 Alpha virt. eigenvalues --    4.15662   4.22997   4.25331   4.26632   4.29737
 Alpha virt. eigenvalues --    4.30855   4.33129   4.33431   4.34317   4.36732
 Alpha virt. eigenvalues --    4.42683   4.43559   4.46558   4.48534   4.68081
 Alpha virt. eigenvalues --    4.73065   4.77602   4.96848
     Molecular Orbital Coefficients:
                           1         2         3         4         5
                           O         O         O         O         O
     Eigenvalues --   -19.14946 -19.14490 -14.37413 -10.28696 -10.28598
   1 1   C  1S          0.00000  -0.00000   0.00000   0.00000  -0.00001
   2        2S          0.00003  -0.00002   0.00001   0.00002  -0.00003
   3        2PX         0.00001   0.00000   0.00000  -0.00007  -0.00003
   4        2PY        -0.00000  -0.00000   0.00000  -0.00004   0.00001
   5        2PZ        -0.00000  -0.00000  -0.00000   0.00000   0.00001
   6        3S         -0.00023   0.00036  -0.00005  -0.00156   0.00014
   7        3PX        -0.00028   0.00025  -0.00006  -0.00057   0.00019
   8        3PY         0.00003  -0.00004   0.00001  -0.00021  -0.00022
   9        3PZ         0.00003  -0.00001   0.00001   0.00002  -0.00006
  10        4S          0.00518   0.00009  -0.00167  -0.00947  -0.01595
  11        4PX         0.00240  -0.00018  -0.00061   0.00012  -0.00407
  12        4PY         0.00815  -0.00148  -0.00139   0.01475  -0.01185
  13        4PZ         0.00094  -0.00030  -0.00017   0.00192  -0.00168
  14        5XX        -0.00001   0.00000   0.00000  -0.00001  -0.00002
  15        5YY        -0.00001   0.00000  -0.00000  -0.00002   0.00001
  16        5ZZ         0.00001  -0.00000   0.00000  -0.00002  -0.00002
  17        5XY        -0.00001  -0.00000  -0.00000  -0.00003  -0.00000
  18        5XZ         0.00000   0.00000   0.00000  -0.00001  -0.00000
  19        5YZ        -0.00000   0.00000   0.00000   0.00000   0.00000
  20 2   C  1S         -0.00000   0.00001   0.00000  -0.00003  -0.00005
  21        2S         -0.00004   0.00003  -0.00000  -0.00023  -0.00014
  22        2PX        -0.00001  -0.00000   0.00000   0.00009  -0.00007
  23        2PY         0.00002  -0.00000  -0.00000   0.00000   0.00005
  24        2PZ         0.00000   0.00001   0.00000  -0.00001   0.00000
  25        3S          0.00006  -0.00051   0.00008   0.00503  -0.00077
  26        3PX         0.00000  -0.00010   0.00003   0.00125  -0.00022
  27        3PY        -0.00015   0.00022  -0.00002  -0.00206  -0.00013
  28        3PZ        -0.00003  -0.00001  -0.00002  -0.00039   0.00009
  29        4S         -0.00114  -0.00137   0.00117   0.11114   0.01459
  30        4PX         0.00917  -0.00196  -0.00157   0.03613  -0.01567
  31        4PY         0.00296  -0.00059  -0.00074   0.00129  -0.01279
  32        4PZ        -0.00043  -0.00001   0.00005  -0.00265   0.00013
  33        5XX         0.00001  -0.00000   0.00000   0.00007  -0.00002
  34        5YY         0.00001  -0.00000   0.00000   0.00006  -0.00005
  35        5ZZ         0.00001   0.00001   0.00000  -0.00007  -0.00008
  36        5XY         0.00004  -0.00000   0.00000  -0.00004  -0.00001
  37        5XZ         0.00001  -0.00000  -0.00000  -0.00002   0.00000
  38        5YZ        -0.00000  -0.00000   0.00000   0.00003   0.00000
  39 3   C  1S         -0.00000   0.00001   0.00000   0.00196   0.00004
  40        2S          0.00008   0.00004   0.00000  -0.00017   0.00011
  41        2PX         0.00000   0.00002  -0.00001  -0.00027   0.00002
  42        2PY        -0.00002  -0.00003   0.00000  -0.00012   0.00003
  43        2PZ        -0.00000  -0.00001  -0.00000  -0.00001   0.00004
  44        3S         -0.00045  -0.00005  -0.00010   0.00816  -0.00373
  45        3PX        -0.00041  -0.00043   0.00006   0.00939  -0.00358
  46        3PY         0.00007  -0.00008  -0.00008   0.00117   0.00049
  47        3PZ         0.00003   0.00008   0.00002  -0.00062   0.00021
  48        4S          0.00552  -0.00419   0.00258   0.06357  -0.14973
  49        4PX         0.00987  -0.00330  -0.00091   0.08517  -0.02095
  50        4PY        -0.00312  -0.00165  -0.00070  -0.03976   0.03870
  51        4PZ        -0.00110   0.00146   0.00010  -0.01376   0.00636
  52        5XX         0.00001   0.00000  -0.00000  -0.00020  -0.00001
  53        5YY        -0.00013   0.00004   0.00000  -0.00025   0.00003
  54        5ZZ        -0.00001   0.00002  -0.00000  -0.00012   0.00001
  55        5XY        -0.00001   0.00000  -0.00000  -0.00016   0.00006
  56        5XZ        -0.00000   0.00000   0.00000  -0.00001   0.00001
  57        5YZ        -0.00001  -0.00000  -0.00000   0.00002   0.00001
  58 4   C  1S          0.00001  -0.00000   0.00000   0.00002   0.00189
  59        2S          0.00002   0.00009   0.00001   0.00009  -0.00006
  60        2PX        -0.00001  -0.00002  -0.00000   0.00003  -0.00026
  61        2PY         0.00004   0.00001   0.00000  -0.00004  -0.00002
  62        2PZ         0.00001   0.00001   0.00000  -0.00002   0.00004
  63        3S          0.00025  -0.00034  -0.00014  -0.00427   0.00631
  64        3PX        -0.00017   0.00019  -0.00023  -0.00333   0.00710
  65        3PY        -0.00013   0.00002  -0.00011  -0.00317   0.00350
  66        3PZ         0.00001  -0.00010  -0.00006  -0.00021   0.00005
  67        4S         -0.00080   0.00553  -0.00236  -0.08163   0.00211
  68        4PX        -0.00406   0.00793   0.00145  -0.03235   0.01618
  69        4PY        -0.00762   0.00517  -0.00000  -0.06437   0.10452
  70        4PZ        -0.00096  -0.00188  -0.00025  -0.00588   0.01470
  71        5XX         0.00001  -0.00005  -0.00002   0.00005  -0.00033
  72        5YY         0.00002  -0.00008   0.00000  -0.00004  -0.00009
  73        5ZZ         0.00002  -0.00002   0.00000  -0.00001  -0.00011
  74        5XY        -0.00002   0.00007   0.00000  -0.00004   0.00009
  75        5XZ        -0.00000   0.00002  -0.00000  -0.00002   0.00005
  76        5YZ         0.00001  -0.00003   0.00000   0.00000  -0.00003
  77 5   C  1S          0.00001  -0.00001   0.00000  -0.00004  -0.00004
  78        2S          0.00003  -0.00006   0.00000  -0.00010  -0.00024
  79        2PX         0.00000   0.00001  -0.00001  -0.00002   0.00004
  80        2PY        -0.00000  -0.00002   0.00000  -0.00008   0.00005
  81        2PZ        -0.00000  -0.00002  -0.00000  -0.00001  -0.00002
  82        3S         -0.00043   0.00053  -0.00020  -0.00161   0.00447
  83        3PX         0.00000  -0.00001   0.00012  -0.00060   0.00001
  84        3PY        -0.00017   0.00038  -0.00012  -0.00022   0.00208
  85        3PZ        -0.00003   0.00012  -0.00001   0.00003   0.00038
  86        4S         -0.00053   0.01175  -0.00200  -0.05459   0.13517
  87        4PX        -0.01057  -0.00268   0.00317  -0.02946   0.02205
  88        4PY        -0.00210   0.00265   0.00018  -0.01016   0.02047
  89        4PZ         0.00068   0.00058  -0.00027   0.00128   0.00050
  90        5XX        -0.00000   0.00004  -0.00000  -0.00003   0.00002
  91        5YY        -0.00000  -0.00002  -0.00000  -0.00002   0.00008
  92        5ZZ         0.00001   0.00001  -0.00000  -0.00006  -0.00008
  93        5XY         0.00000  -0.00001   0.00000   0.00001   0.00003
  94        5XZ         0.00000  -0.00000   0.00000  -0.00000  -0.00001
  95        5YZ        -0.00000   0.00000   0.00000   0.00001   0.00002
  96 6   C  1S         -0.00000   0.00001  -0.00000  -0.00001   0.00001
  97        2S         -0.00002   0.00004  -0.00001  -0.00004   0.00004
  98        2PX        -0.00000   0.00000   0.00000  -0.00003  -0.00006
  99        2PY         0.00000   0.00001   0.00000  -0.00002  -0.00002
 100        2PZ         0.00000  -0.00001  -0.00000   0.00000   0.00001
 101        3S          0.00027  -0.00042   0.00020   0.00015  -0.00153
 102        3PX         0.00016  -0.00029   0.00009   0.00013  -0.00055
 103        3PY         0.00014  -0.00024   0.00001   0.00038  -0.00004
 104        3PZ         0.00001   0.00000  -0.00001   0.00003   0.00002
 105        4S         -0.00507  -0.00824   0.00403  -0.00426  -0.02269
 106        4PX        -0.00629  -0.00045   0.00173  -0.01115   0.00189
 107        4PY         0.00514  -0.00086  -0.00098   0.01175  -0.00813
 108        4PZ         0.00135   0.00016  -0.00028   0.00273  -0.00089
 109        5XX         0.00000  -0.00002   0.00000  -0.00001  -0.00003
 110        5YY         0.00000   0.00001  -0.00000   0.00000   0.00002
 111        5ZZ        -0.00000   0.00002  -0.00000  -0.00002  -0.00000
 112        5XY        -0.00000   0.00000  -0.00000  -0.00001   0.00001
 113        5XZ        -0.00000   0.00000  -0.00000  -0.00001   0.00000
 114        5YZ         0.00000  -0.00000   0.00000   0.00001   0.00000
 115 7   C  1S         -0.00003   0.00000  -0.00000   0.99332   0.00260
 116        2S          0.00034  -0.00000  -0.00001   0.05097  -0.00011
 117        2PX        -0.00009   0.00000  -0.00000  -0.00020  -0.00001
 118        2PY         0.00030  -0.00001   0.00001   0.00075   0.00001
 119        2PZ         0.00004   0.00001   0.00000   0.00009   0.00001
 120        3S          0.00007   0.00031  -0.00034  -0.02747   0.00400
 121        3PX         0.00044  -0.00010  -0.00014  -0.00270   0.00058
 122        3PY        -0.00171  -0.00014  -0.00025   0.01046  -0.00217
 123        3PZ        -0.00020  -0.00009  -0.00003   0.00105  -0.00018
 124        4S         -0.00835  -0.00263   0.00170  -0.03376  -0.00121
 125        4PX         0.00078  -0.00428  -0.00070   0.01693  -0.01211
 126        4PY         0.00524  -0.00115   0.00009   0.03049  -0.00695
 127        4PZ         0.00006  -0.00089  -0.00000   0.00093   0.00079
 128        5XX        -0.00015  -0.00001   0.00000  -0.00872  -0.00006
 129        5YY        -0.00046   0.00002  -0.00001  -0.00789  -0.00008
 130        5ZZ        -0.00020   0.00000  -0.00000  -0.00877  -0.00012
 131        5XY         0.00011  -0.00001  -0.00000  -0.00029   0.00002
 132        5XZ         0.00001   0.00000   0.00000  -0.00005  -0.00000
 133        5YZ        -0.00004   0.00000  -0.00000   0.00011   0.00001
 134 8   C  1S          0.00000  -0.00003  -0.00001  -0.00271   0.99330
 135        2S         -0.00000   0.00032  -0.00006  -0.00039   0.05075
 136        2PX        -0.00000   0.00007   0.00002   0.00001   0.00019
 137        2PY        -0.00000  -0.00030  -0.00000  -0.00000  -0.00070
 138        2PZ        -0.00000  -0.00011  -0.00001  -0.00001  -0.00029
 139        3S          0.00029   0.00075   0.00103   0.00382  -0.02632
 140        3PX         0.00006   0.00007   0.00029  -0.00123   0.00197
 141        3PY         0.00008   0.00086   0.00056   0.00332  -0.00865
 142        3PZ         0.00000   0.00033   0.00029   0.00102  -0.00241
 143        4S         -0.01008  -0.00740  -0.00072  -0.04078   0.02783
 144        4PX        -0.00670   0.00343   0.00148  -0.02271  -0.01272
 145        4PY        -0.00392  -0.01026   0.00185  -0.00612  -0.01883
 146        4PZ        -0.00005   0.00158   0.00018  -0.00256  -0.00035
 147        5XX        -0.00001  -0.00015   0.00004  -0.00000  -0.00874
 148        5YY         0.00002  -0.00037  -0.00001  -0.00007  -0.00798
 149        5ZZ         0.00001  -0.00023  -0.00000  -0.00006  -0.00870
 150        5XY        -0.00001   0.00008  -0.00000   0.00002  -0.00020
 151        5XZ        -0.00000   0.00002   0.00001  -0.00001  -0.00008
 152        5YZ         0.00001  -0.00006   0.00000   0.00001   0.00033
 153 9   C  1S          0.00001   0.00000  -0.00002   0.00000   0.00218
 154        2S          0.00001   0.00008  -0.00005   0.00010   0.00006
 155        2PX        -0.00002  -0.00000  -0.00002  -0.00002   0.00026
 156        2PY         0.00004  -0.00001  -0.00003  -0.00003   0.00012
 157        2PZ        -0.00000   0.00001   0.00000  -0.00002   0.00006
 158        3S          0.00042  -0.00018   0.00160  -0.00435   0.00486
 159        3PX         0.00029   0.00031   0.00128   0.00450  -0.00872
 160        3PY         0.00021   0.00046   0.00146  -0.00166  -0.00185
 161        3PZ         0.00004   0.00000   0.00002   0.00005  -0.00067
 162        4S          0.00234   0.01758  -0.00607  -0.19391   0.09779
 163        4PX         0.00045  -0.00579  -0.00029   0.00719  -0.03851
 164        4PY        -0.00912   0.01111   0.00027  -0.09712   0.06015
 165        4PZ        -0.00270  -0.00485   0.00048  -0.00914   0.00218
 166        5XX         0.00001   0.00003  -0.00002  -0.00004  -0.00023
 167        5YY         0.00004  -0.00009  -0.00004  -0.00001  -0.00024
 168        5ZZ         0.00002  -0.00001  -0.00003  -0.00001  -0.00007
 169        5XY        -0.00001  -0.00001   0.00003   0.00007  -0.00016
 170        5XZ        -0.00000  -0.00000  -0.00002  -0.00003  -0.00000
 171        5YZ        -0.00000  -0.00004  -0.00000  -0.00001  -0.00007
 172 10  C  1S         -0.00000   0.00001   0.00001   0.00189  -0.00000
 173        2S          0.00009   0.00004   0.00006  -0.00013  -0.00005
 174        2PX         0.00001  -0.00000  -0.00000   0.00026  -0.00001
 175        2PY        -0.00002  -0.00002   0.00000   0.00004   0.00006
 176        2PZ        -0.00001  -0.00000  -0.00001  -0.00003   0.00005
 177        3S         -0.00052  -0.00034  -0.00123   0.00791  -0.00200
 178        3PX         0.00022   0.00003  -0.00075  -0.00775   0.00290
 179        3PY         0.00048   0.00031   0.00059  -0.00471   0.00162
 180        3PZ         0.00003   0.00007   0.00010   0.00037  -0.00019
 181        4S          0.00596  -0.00518   0.00483   0.11802  -0.07260
 182        4PX        -0.00110  -0.00352   0.00204   0.00052   0.00979
 183        4PY        -0.00940   0.01131   0.00058  -0.12173   0.07474
 184        4PZ         0.00065   0.00315  -0.00018  -0.00195   0.00137
 185        5XX        -0.00004   0.00001  -0.00001  -0.00033   0.00004
 186        5YY        -0.00008   0.00002   0.00001  -0.00009  -0.00002
 187        5ZZ        -0.00001   0.00002   0.00001  -0.00012  -0.00005
 188        5XY         0.00008  -0.00001   0.00002   0.00008  -0.00004
 189        5XZ         0.00001   0.00000   0.00000   0.00002   0.00004
 190        5YZ        -0.00001  -0.00001  -0.00000  -0.00002   0.00001
 191 11  C  1S         -0.00000   0.00000  -0.00000  -0.00002  -0.00001
 192        2S         -0.00003   0.00001  -0.00002  -0.00022  -0.00004
 193        2PX        -0.00002  -0.00000  -0.00000  -0.00007   0.00002
 194        2PY         0.00003  -0.00000   0.00000  -0.00004   0.00004
 195        2PZ         0.00000   0.00001   0.00000   0.00001  -0.00003
 196        3S          0.00002  -0.00017   0.00055   0.00476  -0.00151
 197        3PX         0.00019   0.00003   0.00025   0.00016   0.00008
 198        3PY        -0.00013   0.00006  -0.00044  -0.00248   0.00057
 199        3PZ        -0.00003  -0.00005  -0.00005  -0.00002   0.00007
 200        4S          0.00119  -0.00281  -0.00083   0.12056  -0.05404
 201        4PX        -0.00681   0.00519   0.00133  -0.01635   0.02086
 202        4PY        -0.00253   0.00205   0.00060  -0.01622   0.01016
 203        4PZ         0.00044  -0.00119  -0.00008   0.00076  -0.00182
 204        5XX         0.00004  -0.00000  -0.00001   0.00006  -0.00001
 205        5YY        -0.00002  -0.00000   0.00000   0.00010  -0.00001
 206        5ZZ         0.00002   0.00000  -0.00001  -0.00007  -0.00003
 207        5XY        -0.00002   0.00000  -0.00000   0.00002   0.00001
 208        5XZ        -0.00000   0.00000   0.00000  -0.00001   0.00000
 209        5YZ         0.00000   0.00000   0.00000  -0.00001  -0.00001
 210 12  H  1S          0.00003   0.00000   0.00002  -0.00003   0.00001
 211        2S          0.00027  -0.00002   0.00017   0.00068  -0.00022
 212 13  C  1S          0.00000  -0.00000   0.00001   0.00000  -0.00000
 213        2S          0.00003  -0.00002   0.00003   0.00003  -0.00002
 214        2PX        -0.00001   0.00000   0.00001   0.00007   0.00001
 215        2PY        -0.00000   0.00000   0.00001   0.00002  -0.00002
 216        2PZ        -0.00000  -0.00000  -0.00000  -0.00001  -0.00001
 217        3S         -0.00030   0.00017  -0.00110  -0.00151   0.00091
 218        3PX         0.00025  -0.00006   0.00024   0.00057  -0.00016
 219        3PY         0.00016  -0.00006   0.00043   0.00008  -0.00035
 220        3PZ        -0.00001   0.00001  -0.00001  -0.00006   0.00004
 221        4S          0.00346   0.00580  -0.00227  -0.00902  -0.00149
 222        4PX        -0.00418   0.00453   0.00122   0.00206   0.00951
 223        4PY         0.00389  -0.00455  -0.00046   0.00221  -0.00829
 224        4PZ         0.00045   0.00026  -0.00014   0.00029  -0.00085
 225        5XX        -0.00002  -0.00000   0.00001  -0.00005   0.00002
 226        5YY         0.00000  -0.00000   0.00001   0.00001   0.00000
 227        5ZZ         0.00001  -0.00001   0.00000  -0.00001  -0.00001
 228        5XY         0.00000  -0.00000  -0.00002   0.00001  -0.00001
 229        5XZ         0.00000  -0.00000  -0.00000   0.00001   0.00001
 230        5YZ        -0.00000   0.00000  -0.00000   0.00000  -0.00000
 231 14  C  1S         -0.00001  -0.00000  -0.00002  -0.00002  -0.00000
 232        2S         -0.00002   0.00000  -0.00001  -0.00005  -0.00001
 233        2PX         0.00000  -0.00001   0.00002   0.00005   0.00004
 234        2PY         0.00000   0.00000   0.00001  -0.00001   0.00005
 235        2PZ        -0.00000  -0.00001  -0.00001  -0.00000  -0.00000
 236        3S          0.00035   0.00017   0.00110  -0.00011  -0.00087
 237        3PX        -0.00026   0.00003  -0.00102  -0.00006   0.00074
 238        3PY         0.00001  -0.00010   0.00046   0.00033  -0.00069
 239        3PZ         0.00002   0.00004  -0.00001  -0.00002  -0.00010
 240        4S          0.00766   0.00811   0.00515  -0.02438   0.02224
 241        4PX        -0.00010  -0.00234  -0.00130   0.00414  -0.00500
 242        4PY         0.00307  -0.00972  -0.00119   0.00199  -0.01609
 243        4PZ        -0.00044  -0.00055   0.00030  -0.00145   0.00184
[...]
  50         O                -0.392843          1.442755
  51         O                -0.386179          1.038090
  52         O                -0.381745          1.478915
  53         O                -0.369203          1.633604
  54         O                -0.360770          1.582533
  55         O                -0.358445          1.377954
  56         O                -0.312923          1.344089
  57         O                -0.279131          1.476274
  58         O                -0.271654          1.843892
  59         O                -0.269882          1.241409
  60         O                -0.267766          1.653620
  61         O                -0.258915          2.289913
  62         O                -0.221597          1.522853
  63         V                -0.104374          1.679618
  64         V                -0.059826          1.424874
  65         V                -0.030537          1.331229
  66         V                -0.014985          1.218735
  67         V                -0.007922          0.563936
  68         V                 0.006382          0.326328
  69         V                 0.013452          0.341183
  70         V                 0.018470          0.346688
  71         V                 0.027063          0.284215
  72         V                 0.033026          0.362276
  73         V                 0.037162          1.000621
  74         V                 0.039203          0.489803
  75         V                 0.044128          0.559499
  76         V                 0.047979          1.152536
  77         V                 0.051281          0.375046
  78         V                 0.058783          0.440646
  79         V                 0.060443          0.431912
  80         V                 0.065918          0.291932
  81         V                 0.070669          0.334921
  82         V                 0.072337          0.335966
  83         V                 0.080880          0.344810
  84         V                 0.087332          0.381592
  85         V                 0.092079          0.312328
  86         V                 0.093519          0.319278
  87         V                 0.103927          0.375918
  88         V                 0.107161          0.370934
  89         V                 0.111301          0.545952
  90         V                 0.114995          0.732444
  91         V                 0.122765          0.493670
  92         V                 0.126992          0.554346
  93         V                 0.130000          0.374669
  94         V                 0.140313          0.451940
  95         V                 0.143390          0.572696
  96         V                 0.149919          0.544305
  97         V                 0.152937          0.470912
  98         V                 0.157059          0.684507
  99         V                 0.160275          0.682974
 100         V                 0.164148          0.689445
 101         V                 0.167100          0.661554
 102         V                 0.172653          0.695940
 103         V                 0.176167          0.856917
 104         V                 0.178991          0.824017
 105         V                 0.180172          0.788969
 106         V                 0.185700          0.706834
 107         V                 0.189119          0.873057
 108         V                 0.192281          0.911894
 109         V                 0.195530          0.837085
 110         V                 0.202931          0.674904
 111         V                 0.207156          0.905975
 112         V                 0.209492          0.769057
 113         V                 0.212468          1.224609
 114         V                 0.214419          0.801852
 115         V                 0.216065          0.811184
 116         V                 0.219496          0.765368
 117         V                 0.221582          0.999842
 118         V                 0.225708          0.951803
 119         V                 0.229862          0.847537
 120         V                 0.234253          0.830132
 121         V                 0.236276          1.109435
 122         V                 0.244835          0.938036
 123         V                 0.247426          0.821484
 124         V                 0.248299          0.741498
 125         V                 0.253135          0.715501
 126         V                 0.257956          0.862197
 127         V                 0.258640          0.893985
 128         V                 0.263809          0.707949
 129         V                 0.270451          1.113576
 130         V                 0.274578          1.033078
 131         V                 0.279160          1.158205
 132         V                 0.283360          1.280827
 133         V                 0.286143          0.873658
 134         V                 0.288596          0.906681
 135         V                 0.290274          1.190942
 136         V                 0.292529          1.130718
 137         V                 0.298177          0.994602
 138         V                 0.304958          1.542754
 139         V                 0.306898          1.331136
 140         V                 0.315806          0.932937
 141         V                 0.325284          0.983645
 142         V                 0.325867          1.059067
 143         V                 0.330245          0.953464
 144         V                 0.334077          1.703192
 145         V                 0.336509          0.958818
 146         V                 0.340738          0.942248
 147         V                 0.350423          0.966509
 148         V                 0.358045          1.237966
 149         V                 0.359791          1.228964
 150         V                 0.373177          1.267142
 151         V                 0.376042          1.475074
 152         V                 0.382467          1.205744
 153         V                 0.386885          1.059466
 154         V                 0.401294          1.390738
 155         V                 0.404950          1.366131
 156         V                 0.409275          1.166705
 157         V                 0.410361          1.863126
 158         V                 0.426895          1.199298
 159         V                 0.436920          1.863312
 160         V                 0.451900          1.465543
 161         V                 0.457604          1.475791
 162         V                 0.471641          1.934058
 163         V                 0.496636          2.262578
 164         V                 0.502086          2.191097
 165         V                 0.537664          2.409703
 166         V                 0.591518          2.510049
 167         V                 0.608430          3.008532
 168         V                 0.633563          2.837830
 169         V                 0.653375          2.346323
 170         V                 0.665835          2.380148
 171         V                 0.672175          2.214341
 172         V                 0.678726          2.299252
 173         V                 0.683743          2.247700
 174         V                 0.688149          2.412474
 175         V                 0.694540          2.211648
 176         V                 0.699288          2.298247
 177         V                 0.706222          2.526843
 178         V                 0.724630          2.288654
 179         V                 0.727631          2.333423
 180         V                 0.730581          2.318018
 181         V                 0.737165          2.322250
 182         V                 0.740574          2.455293
 183         V                 0.750335          2.368985
 184         V                 0.752051          2.619476
 185         V                 0.755444          2.286600
 186         V                 0.773148          2.347608
 187         V                 0.781361          2.276348
 188         V                 0.786425          2.263448
 189         V                 0.789840          2.192854
 190         V                 0.798875          2.319684
 191         V                 0.806424          2.320864
 192         V                 0.814765          2.340773
 193         V                 0.824511          2.382915
 194         V                 0.845569          2.326771
 195         V                 0.859501          2.636284
 196         V                 0.870863          2.368257
 197         V                 0.887451          2.556952
 198         V                 0.894987          2.507958
 199         V                 0.899526          2.639355
 200         V                 0.920250          2.416314
 201         V                 0.928164          2.368000
 202         V                 0.929921          2.442735
 203         V                 0.941765          2.414425
 204         V                 0.948718          2.443977
 205         V                 0.962506          2.405590
 206         V                 0.983642          2.589475
 207         V                 1.002101          2.385914
 208         V                 1.015861          2.538444
 209         V                 1.020809          2.451960
 210         V                 1.027460          2.383195
 211         V                 1.034651          2.485837
 212         V                 1.063951          2.515659
 213         V                 1.065936          2.499468
 214         V                 1.079909          2.472213
 215         V                 1.098833          2.410668
 216         V                 1.112097          2.455749
 217         V                 1.112672          2.377784
 218         V                 1.128244          2.245388
 219         V                 1.141849          2.362303
 220         V                 1.151781          2.329381
 221         V                 1.152782          2.456823
 222         V                 1.165616          2.389087
 223         V                 1.175376          2.393532
 224         V                 1.188293          2.430354
 225         V                 1.199228          2.452232
 226         V                 1.206452          2.516113
 227         V                 1.222994          2.510321
 228         V                 1.227813          2.393855
 229         V                 1.233697          2.412238
 230         V                 1.243280          2.724253
 231         V                 1.253490          2.535441
 232         V                 1.264567          2.843616
 233         V                 1.272370          3.048213
 234         V                 1.287054          2.506818
 235         V                 1.305359          3.009048
 236         V                 1.320880          2.645451
 237         V                 1.334260          2.867050
 238         V                 1.340625          2.818913
 239         V                 1.345274          2.615177
 240         V                 1.354505          2.839922
 241         V                 1.358150          2.854750
 242         V                 1.374461          2.647623
 243         V                 1.381126          2.672558
 244         V                 1.405657          2.730072
 245         V                 1.411280          2.814234
 246         V                 1.433021          2.664966
 247         V                 1.446242          2.745661
 248         V                 1.448064          2.761748
 249         V                 1.456803          3.021492
 250         V                 1.464835          2.719607
 251         V                 1.471546          2.712630
 252         V                 1.478873          2.716128
 253         V                 1.482027          2.785998
 254         V                 1.499411          2.818238
 255         V                 1.505029          2.787947
 256         V                 1.517167          3.080463
 257         V                 1.545721          2.914268
 258         V                 1.600928          2.936660
 259         V                 1.616258          2.854231
 260         V                 1.643339          3.007621
 261         V                 1.675296          2.987355
 262         V                 1.687648          3.134165
 263         V                 1.714878          3.012766
 264         V                 1.739123          2.985163
 265         V                 1.754032          2.918039
 266         V                 1.769273          3.022491
 267         V                 1.793676          3.056120
 268         V                 1.805539          3.096216
 269         V                 1.811527          3.227749
 270         V                 1.832589          3.330589
 271         V                 1.834696          3.334957
 272         V                 1.861040          3.296939
 273         V                 1.862938          3.222686
 274         V                 1.888662          3.280436
 275         V                 1.899475          3.235362
 276         V                 1.922030          3.197601
 277         V                 1.934733          3.274629
 278         V                 1.947878          3.411328
 279         V                 1.960090          3.454249
 280         V                 1.985282          3.507338
 281         V                 1.992690          3.280857
 282         V                 2.003590          3.272440
 283         V                 2.004061          3.401313
 284         V                 2.044081          3.419659
 285         V                 2.054453          3.611876
 286         V                 2.063476          3.612431
 287         V                 2.073156          3.682767
 288         V                 2.086438          3.538080
 289         V                 2.107242          3.348408
 290         V                 2.113477          3.621810
 291         V                 2.133351          3.398690
 292         V                 2.153859          3.440038
 293         V                 2.164078          3.576154
 294         V                 2.172435          3.605951
 295         V                 2.185510          3.558031
 296         V                 2.205771          3.437483
 297         V                 2.222339          3.643620
 298         V                 2.236032          3.521589
 299         V                 2.255395          3.566045
 300         V                 2.272318          3.544225
 301         V                 2.273120          3.600245
 302         V                 2.280480          3.653817
 303         V                 2.286797          3.557628
 304         V                 2.301397          3.611207
 305         V                 2.321718          3.615268
 306         V                 2.363583          3.778538
 307         V                 2.388670          3.720195
 308         V                 2.420877          3.804302
 309         V                 2.438963          3.777833
 310         V                 2.458551          4.032677
 311         V                 2.466424          4.073074
 312         V                 2.495016          4.213160
 313         V                 2.524578          4.001628
 314         V                 2.554490          3.907240
 315         V                 2.557487          3.904857
 316         V                 2.565838          4.052326
 317         V                 2.596119          4.004788
 318         V                 2.603049          3.989894
 319         V                 2.644865          4.099639
 320         V                 2.662595          4.259662
 321         V                 2.684611          4.300982
 322         V                 2.709104          4.138783
 323         V                 2.712956          4.279999
 324         V                 2.717258          4.385964
 325         V                 2.731950          4.242936
 326         V                 2.747277          4.431550
 327         V                 2.777598          4.395614
 328         V                 2.794908          4.481218
 329         V                 2.818457          4.545816
 330         V                 2.842877          4.446606
 331         V                 2.865887          4.708858
 332         V                 2.893304          4.658865
 333         V                 2.955163          4.762268
 334         V                 2.998328          4.750093
 335         V                 3.029977          4.724090
 336         V                 3.080267          4.799565
 337         V                 3.187588          5.049880
 338         V                 3.221630          5.235413
 339         V                 3.251060          5.298328
 340         V                 3.345933          5.334923
 341         V                 3.417473          5.347422
 342         V                 3.486209          5.306425
 343         V                 4.156620         10.825408
 344         V                 4.229967         10.481044
 345         V                 4.253308         10.564908
 346         V                 4.266323         10.534634
 347         V                 4.297369         10.487795
 348         V                 4.308546         10.559311
 349         V                 4.331288         10.595525
 350         V                 4.334314         10.581072
 351         V                 4.343165         10.614764
 352         V                 4.367324         10.534920
 353         V                 4.426830         10.443400
 354         V                 4.435592         10.374134
 355         V                 4.465583         10.475919
 356         V                 4.485339         10.481562
 357         V                 4.680807         10.537065
 358         V                 4.730653         11.599106
 359         V                 4.776021         11.622452
 360         V                 4.968478         11.808108
 Total kinetic energy from orbitals= 7.761208697764D+02
 Leave Link  601 at Thu Jun  3 22:17:05 2021, MaxMem=    33554432 cpu:         1.3
 (Enter /opt/app/gaussian09/e01/g09/l9999.exe)
 1\1\GINC-NB-0073\SP\RB3LYP TD-FC\6-31+G(d)\C15H11N1O2\ROOT\03-Jun-2021
 \0\\#p td(NStates=10) b3lyp/6-31+g(d) nosymm pop=full\\Title Card Requ
 ired\\0,1\C,0,-4.13717005,-0.09407892,0.18117048\C,0,-3.18838294,0.921
 98875,0.23702329\C,0,-1.83014732,0.62154644,0.07535478\C,0,-1.4233076,
 -0.70362613,-0.14934094\C,0,-2.38588735,-1.71794384,-0.21939979\C,0,-3
 .73417999,-1.41556147,-0.04880966\C,0,-0.82700977,1.71542514,0.1087078
 2\C,0,0.01856633,-1.0646937,-0.33175279\C,0,1.03513977,-0.02006649,-0.
 07536176\C,0,0.6172178,1.3415131,-0.01641135\C,0,1.5305391,2.38728959,
 -0.07132403\H,0,1.15929493,3.40453877,-0.02746813\C,0,2.89354743,2.102
 62784,-0.19659173\C,0,3.33323484,0.79264036,-0.18605792\C,0,2.43608584
 ,-0.29981733,-0.06976216\H,0,-5.19069521,0.13861593,0.30997499\H,0,-3.
 47123853,1.956867,0.39951524\H,0,-2.05251429,-2.73269703,-0.40878572\H
 ,0,-4.47604996,-2.20823217,-0.0966008\H,0,3.6163832,2.91070093,-0.2696
 6796\H,0,4.40036355,0.58174841,-0.2268591\O,0,0.30604072,-2.19187359,-
 0.73587214\O,0,-1.16967604,2.88663211,0.24037817\N,0,2.99500931,-1.551
 12182,0.05201117\H,0,4.00432163,-1.52672043,0.00770835\C,0,2.4776803,-
 2.64346696,0.86869756\H,0,3.33006097,-3.17966602,1.2972063\H,0,1.86514
 939,-2.25682955,1.69281641\H,0,1.86338339,-3.33119955,0.28518315\\Vers
 ion=ES64L-G09RevE.01\HF=-783.4585145\RMSD=5.205e-09\PG=C01 [X(C15H11N1
 O2)]\\@


 TERRY FORSTER, PORTLY ATLANTA BRAVES RELIEVER,
 ANNOUNCING THAT HE WAS GOING TO A FAT FARM:
 "A WAIST IS A TERRIBLE THING TO MIND."
 Job cpu time:       0 days  1 hours  7 minutes 37.5 seconds.
 File lengths (MBytes):  RWF=    341 Int=      0 D2E=      0 Chk=     50 Scr=      1
 Normal termination of Gaussian 09 at Thu Jun  3 22:17:10 2021.
