 Entering Gaussian System, Link 0=/opt/app/gaussian09/e01/g09/g09.exec
 Input=1_methylamino_anthraquinone_opt.gjf
 Output=1_methylamino_anthraquinone_opt.log
 Initial command:
 /opt/app/gaussian09/e01/g09/l1.exe "./Gau-60646.inp" -scrdir="./"
 Entering Link 1 = /opt/app/gaussian09/e01/g09/l1.exe PID=     60650.
  
 Copyright (c) 1988,1990,1992,1993,1995,1998,2003,2009,2015,
            Gaussian, Inc.  All Rights Reserved.
  
 This is part of the Gaussian(R) 09 program.  It is based on
 the Gaussian(R) 03 system (copyright 2003, Gaussian, Inc.),
 the Gaussian(R) 98 system (copyright 1998, Gaussian, Inc.),
 the Gaussian(R) 94 system (copyright 1995, Gaussian, Inc.),
 the Gaussian 92(TM) system (copyright 1992, Gaussian, Inc.),
 the Gaussian 90(TM) system (copyright 1990, Gaussian, Inc.),
 the Gaussian 88(TM) system (copyright 1988, Gaussian, Inc.),
 the Gaussian 86(TM) system (copyright 1986, Carnegie Mellon
 University), and the Gaussian 82(TM) system (copyright 1983,
 Carnegie Mellon University). Gaussian is a federally registered
 trademark of Gaussian, Inc.
  
 This software contains proprietary and confidential information,
 including trade secrets, belonging to Gaussian, Inc.
  
 This software is provided under written license and may be
 used, copied, transmitted, or stored only in accord with that
 written license.
  
 The following legend is applicable only to US Government
 contracts under FAR:
  
                    RESTRICTED RIGHTS LEGEND
  
 Use, reproduction and disclosure by the US Government is
 subject to restrictions as set forth in subparagraphs (a)
 and (c) of the Commercial Computer Software - Restricted
 Rights clause in FAR 52.227-19.
  
 Gaussian, Inc.
 340 Quinnipiac St., Bldg. 40, Wallingford CT 06492
  
  
 ---------------------------------------------------------------
 Warning -- This program may not be used in any manner that
 competes with the business of Gaussian, Inc. or will provide
 assistance to any competitor of Gaussian, Inc.  The licensee
 of this program is prohibited from giving any competitor of
 Gaussian, Inc. access to this program.  By using this program,
 the user acknowledges that Gaussian, Inc. is engaged in the
 business of creating and licensing software in the field of
 computational chemistry and represents and warrants to the
 licensee that it is not a competitor of Gaussian, Inc. and that
 it will not use this program in any manner prohibited above.
 ---------------------------------------------------------------
  

 Cite this work as:
 Gaussian 09, Revision E.01,
 M. J. Frisch, G. W. Trucks, H. B. Schlegel, G. E. Scuseria, 
 M. A. Robb, J. R. Cheeseman, G. Scalmani, V. Barone, B. Mennucci, 
 G. A. Petersson, H. Nakatsuji, M. Caricato, X. Li, H. P. Hratchian, 
 A. F. Izmaylov, J. Bloino, G. Zheng, J. L. Sonnenberg, M. Hada, 
 M. Ehara, K. Toyota, R. Fukuda, J. Hasegawa, M. Ishida, T. Nakajima, 
 Y. Honda, O. Kitao, H. Nakai, T. Vreven, J. A. Montgomery, Jr., 
 J. E. Peralta, F. Ogliaro, M. Bearpark, J. J. Heyd, E. Brothers, 
 K. N. Kudin, V. N. Staroverov, T. Keith, R. Kobayashi, J. Normand, 
 K. Raghavachari, A. Rendell, J. C. Burant, S. S. Iyengar, J. Tomasi, 
 M. Cossi, N. Rega, J. M. Millam, M. Klene, J. E. Knox, J. B. Cross, 
 V. Bakken, C. Adamo, J. Jaramillo, R. Gomperts, R. E. Stratmann, 
 O. Yazyev, A. J. Austin, R. Cammi, C. Pomelli, J. W. Ochterski, 
 R. L. Martin, K. Morokuma, V. G. Zakrzewski, G. A. Voth, 
 P. Salvador, J. J. Dannenberg, S. Dapprich, A. D. Daniels, 
 O. Farkas, J. B. Foresman, J. V. Ortiz, J. Cioslowski, 
 and D. J. Fox, Gaussian, Inc., Wallingford CT, 2013.
 
 ******************************************
 Gaussian 09:  ES64L-G09RevE.01 30-Nov-2015
                 3-Jun-2021 
 ******************************************
 %chk=1_methylamino_anthraquinone_opt.chk
 -----------------------------------------------------
 #p opt b3lyp/6-31g(d) geom=connectivity int=ultrafine
 -----------------------------------------------------
 1/14=-1,18=20,19=15,26=4,38=1,57=2/1,3;
 2/9=110,12=2,17=6,18=5,40=1/2;
 3/5=1,6=6,7=1,11=2,16=1,25=1,30=1,71=1,74=-5,75=-5/1,2,3;
 4//1;
 5/5=2,38=5/2;
 6/7=2,8=2,9=2,10=2,28=1/1;
 7//1,2,3,16;
 1/14=-1,18=20,19=15,26=4/3(2);
 2/9=110/2;
 99//99;
 2/9=110/2;
 3/5=1,6=6,7=1,11=2,16=1,25=1,30=1,71=1,74=-5,75=-5/1,2,3;
 4/5=5,16=3,69=1/1;
 5/5=2,38=5/2;
 7//1,2,3,16;
 1/14=-1,18=20,19=15,26=4/3(-5);
 2/9=110/2;
 6/7=2,8=2,9=2,10=2,19=2,28=1/1;
 99/9=1/99;
 Leave Link    1 at Thu Jun  3 14:33:34 2021, MaxMem=           0 cpu:         0.0
 (Enter /opt/app/gaussian09/e01/g09/l101.exe)
 -------------------
 Title Card Required
 -------------------
 Symbolic Z-matrix:
 Charge =  0 Multiplicity = 1
 C                    -3.28481  -3.198    -0.01292 
 C                    -1.92019  -3.198    -0.01292 
 C                    -1.1873   -1.96678  -0.01292 
 C                    -1.9113   -0.73503  -0.01843 
 C                    -3.34354  -0.77652  -0.01973 
 C                    -4.00732  -1.96881  -0.01636 
 C                     0.2116   -1.94389  -0.00802 
 C                    -1.21092   0.47614  -0.02016 
 C                     0.18802   0.49902  -0.01453 
 C                     0.91199  -0.73268  -0.00711 
 C                     2.34417  -0.69106   0. 
 H                     2.89004  -1.64658   0.0066 
 C                     3.00791   0.5013    0.00104 
 C                     2.28543   1.73041  -0.00713 
 C                     0.92078   1.73027  -0.0145 
 H                    -3.85068  -4.14127  -0.01051 
 H                    -1.35086  -4.13973  -0.00981 
 H                    -3.88935   0.17903  -0.02434 
 H                    -5.10672  -2.00498  -0.01779 
 H                     4.10732   0.5372    0.0072 
 H                     2.85151   2.67359  -0.00604 
 O                    -1.93587   1.70874  -0.0257 
 O                     0.93599  -3.17682  -0.00241 
 N                     0.16      2.98806  -0.02288 
 H                     0.38712   3.52043   0.7926 
 C                     0.50482   3.76129  -1.22459 
 H                    -0.25826   4.48741  -1.41262 
 H                     1.44027   4.25808  -1.07281 
 H                     0.58344   3.10121  -2.06305 
 
 NAtoms=     29 NQM=       29 NQMF=       0 NMMI=      0 NMMIF=      0
                NMic=       0 NMicF=      0.
                    Isotopes and Nuclear Properties:
 (Nuclear quadrupole moments (NQMom) in fm**2, nuclear magnetic moments (NMagM)
  in nuclear magnetons)

  Atom         1           2           3           4           5           6           7           8           9          10
 IAtWgt=          12          12          12          12          12          12          12          12          12          12
 AtmWgt=  12.0000000  12.0000000  12.0000000  12.0000000  12.0000000  12.0000000  12.0000000  12.0000000  12.0000000  12.0000000
 NucSpn=           0           0           0           0           0           0           0           0           0           0
 AtZEff=   0.0000000   0.0000000   0.0000000   0.0000000   0.0000000   0.0000000   0.0000000   0.0000000   0.0000000   0.0000000
 NQMom=    0.0000000   0.0000000   0.0000000   0.0000000   0.0000000   0.0000000   0.0000000   0.0000000   0.0000000   0.0000000
 NMagM=    0.0000000   0.0000000   0.0000000   0.0000000   0.0000000   0.0000000   0.0000000   0.0000000   0.0000000   0.0000000
 AtZNuc=   6.0000000   6.0000000   6.0000000   6.0000000   6.0000000   6.0000000   6.0000000   6.0000000   6.0000000   6.0000000

  Atom        11          12          13          14          15          16          17          18          19          20
 IAtWgt=          12           1          12          12          12           1           1           1           1           1
 AtmWgt=  12.0000000   1.0078250  12.0000000  12.0000000  12.0000000   1.0078250   1.0078250   1.0078250   1.0078250   1.0078250
 NucSpn=           0           1           0           0           0           1           1           1           1           1
 AtZEff=   0.0000000   0.0000000   0.0000000   0.0000000   0.0000000   0.0000000   0.0000000   0.0000000   0.0000000   0.0000000
 NQMom=    0.0000000   0.0000000   0.0000000   0.0000000   0.0000000   0.0000000   0.0000000   0.0000000   0.0000000   0.0000000
 NMagM=    0.0000000   2.7928460   0.0000000   0.0000000   0.0000000   2.7928460   2.7928460   2.7928460   2.7928460   2.7928460
 AtZNuc=   6.0000000   1.0000000   6.0000000   6.0000000   6.0000000   1.0000000   1.0000000   1.0000000   1.0000000   1.0000000

  Atom        21          22          23          24          25          26          27          28          29
 IAtWgt=           1          16          16          14           1          12           1           1           1
 AtmWgt=   1.0078250  15.9949146  15.9949146  14.0030740   1.0078250  12.0000000   1.0078250   1.0078250   1.0078250
 NucSpn=           1           0           0           2           1           0           1           1           1
 AtZEff=   0.0000000   0.0000000   0.0000000   0.0000000   0.0000000   0.0000000   0.0000000   0.0000000   0.0000000
 NQMom=    0.0000000   0.0000000   0.0000000   2.0440000   0.0000000   0.0000000   0.0000000   0.0000000   0.0000000
 NMagM=    2.7928460   0.0000000   0.0000000   0.4037610   2.7928460   0.0000000   2.7928460   2.7928460   2.7928460
 AtZNuc=   1.0000000   8.0000000   8.0000000   7.0000000   1.0000000   6.0000000   1.0000000   1.0000000   1.0000000
 Leave Link  101 at Thu Jun  3 14:33:35 2021, MaxMem=    33554432 cpu:         0.1
 (Enter /opt/app/gaussian09/e01/g09/l103.exe)

 GradGradGradGradGradGradGradGradGradGradGradGradGradGradGradGradGradGrad
 Berny optimization.
 Initialization pass.
                           ----------------------------
                           !    Initial Parameters    !
                           ! (Angstroms and Degrees)  !
 --------------------------                            --------------------------
 ! Name  Definition              Value          Derivative Info.                !
 --------------------------------------------------------------------------------
 ! R1    R(1,2)                  1.3646         estimate D2E/DX2                !
 ! R2    R(1,6)                  1.4258         estimate D2E/DX2                !
 ! R3    R(1,16)                 1.1            estimate D2E/DX2                !
 ! R4    R(2,3)                  1.4328         estimate D2E/DX2                !
 ! R5    R(2,17)                 1.1005         estimate D2E/DX2                !
 ! R6    R(3,4)                  1.4288         estimate D2E/DX2                !
 ! R7    R(3,7)                  1.3991         estimate D2E/DX2                !
 ! R8    R(4,5)                  1.4328         estimate D2E/DX2                !
 ! R9    R(4,8)                  1.3991         estimate D2E/DX2                !
 ! R10   R(5,6)                  1.3646         estimate D2E/DX2                !
 ! R11   R(5,18)                 1.1005         estimate D2E/DX2                !
 ! R12   R(6,19)                 1.1            estimate D2E/DX2                !
 ! R13   R(7,10)                 1.3991         estimate D2E/DX2                !
 ! R14   R(7,23)                 1.43           estimate D2E/DX2                !
 ! R15   R(8,9)                  1.3991         estimate D2E/DX2                !
 ! R16   R(8,22)                 1.43           estimate D2E/DX2                !
 ! R17   R(9,10)                 1.4287         estimate D2E/DX2                !
 ! R18   R(9,15)                 1.4328         estimate D2E/DX2                !
 ! R19   R(10,11)                1.4328         estimate D2E/DX2                !
 ! R20   R(11,12)                1.1005         estimate D2E/DX2                !
 ! R21   R(11,13)                1.3646         estimate D2E/DX2                !
 ! R22   R(13,14)                1.4258         estimate D2E/DX2                !
 ! R23   R(13,20)                1.1            estimate D2E/DX2                !
 ! R24   R(14,15)                1.3647         estimate D2E/DX2                !
 ! R25   R(14,21)                1.1            estimate D2E/DX2                !
 ! R26   R(15,24)                1.47           estimate D2E/DX2                !
 ! R27   R(24,25)                1.0            estimate D2E/DX2                !
 ! R28   R(24,26)                1.47           estimate D2E/DX2                !
 ! R29   R(26,27)                1.07           estimate D2E/DX2                !
 ! R30   R(26,28)                1.07           estimate D2E/DX2                !
 ! R31   R(26,29)                1.07           estimate D2E/DX2                !
 ! A1    A(2,1,6)              120.4466         estimate D2E/DX2                !
 ! A2    A(2,1,16)             120.9594         estimate D2E/DX2                !
 ! A3    A(6,1,16)             118.5939         estimate D2E/DX2                !
 ! A4    A(1,2,3)              120.7635         estimate D2E/DX2                !
 ! A5    A(1,2,17)             121.155          estimate D2E/DX2                !
 ! A6    A(3,2,17)             118.0813         estimate D2E/DX2                !
 ! A7    A(2,3,4)              118.7901         estimate D2E/DX2                !
 ! A8    A(2,3,7)              121.7006         estimate D2E/DX2                !
 ! A9    A(4,3,7)              119.5092         estimate D2E/DX2                !
 ! A10   A(3,4,5)              118.7868         estimate D2E/DX2                !
 ! A11   A(3,4,8)              119.5145         estimate D2E/DX2                !
 ! A12   A(5,4,8)              121.6986         estimate D2E/DX2                !
 ! A13   A(4,5,6)              120.765          estimate D2E/DX2                !
 ! A14   A(4,5,18)             118.0759         estimate D2E/DX2                !
 ! A15   A(6,5,18)             121.1591         estimate D2E/DX2                !
 ! A16   A(1,6,5)              120.4476         estimate D2E/DX2                !
 ! A17   A(1,6,19)             118.5627         estimate D2E/DX2                !
 ! A18   A(5,6,19)             120.9896         estimate D2E/DX2                !
 ! A19   A(3,7,10)             120.9763         estimate D2E/DX2                !
 ! A20   A(3,7,23)             119.4985         estimate D2E/DX2                !
 ! A21   A(10,7,23)            119.5252         estimate D2E/DX2                !
 ! A22   A(4,8,9)              120.9759         estimate D2E/DX2                !
 ! A23   A(4,8,22)             119.499          estimate D2E/DX2                !
 ! A24   A(9,8,22)             119.5251         estimate D2E/DX2                !
 ! A25   A(8,9,10)             119.5096         estimate D2E/DX2                !
 ! A26   A(8,9,15)             121.6954         estimate D2E/DX2                !
 ! A27   A(10,9,15)            118.7949         estimate D2E/DX2                !
 ! A28   A(7,10,9)             119.5142         estimate D2E/DX2                !
 ! A29   A(7,10,11)            121.7035         estimate D2E/DX2                !
 ! A30   A(9,10,11)            118.7822         estimate D2E/DX2                !
 ! A31   A(10,11,12)           118.0746         estimate D2E/DX2                !
 ! A32   A(10,11,13)           120.7675         estimate D2E/DX2                !
 ! A33   A(12,11,13)           121.1578         estimate D2E/DX2                !
 ! A34   A(11,13,14)           120.4489         estimate D2E/DX2                !
 ! A35   A(11,13,20)           120.9732         estimate D2E/DX2                !
 ! A36   A(14,13,20)           118.5779         estimate D2E/DX2                !
 ! A37   A(13,14,15)           120.4423         estimate D2E/DX2                !
 ! A38   A(13,14,21)           118.5802         estimate D2E/DX2                !
 ! A39   A(15,14,21)           120.9774         estimate D2E/DX2                !
 ! A40   A(9,15,14)            120.7641         estimate D2E/DX2                !
 ! A41   A(9,15,24)            118.0731         estimate D2E/DX2                !
 ! A42   A(14,15,24)           121.1628         estimate D2E/DX2                !
 ! A43   A(15,24,25)           109.4712         estimate D2E/DX2                !
 ! A44   A(15,24,26)           109.4712         estimate D2E/DX2                !
 ! A45   A(25,24,26)           109.4713         estimate D2E/DX2                !
 ! A46   A(24,26,27)           109.4712         estimate D2E/DX2                !
 ! A47   A(24,26,28)           109.4712         estimate D2E/DX2                !
 ! A48   A(24,26,29)           109.4712         estimate D2E/DX2                !
 ! A49   A(27,26,28)           109.4713         estimate D2E/DX2                !
 ! A50   A(27,26,29)           109.4712         estimate D2E/DX2                !
 ! A51   A(28,26,29)           109.4712         estimate D2E/DX2                !
 ! D1    D(6,1,2,3)              0.1607         estimate D2E/DX2                !
 ! D2    D(6,1,2,17)           179.9717         estimate D2E/DX2                !
 ! D3    D(16,1,2,3)          -179.854          estimate D2E/DX2                !
 ! D4    D(16,1,2,17)           -0.0429         estimate D2E/DX2                !
 ! D5    D(2,1,6,5)              0.0013         estimate D2E/DX2                !
 ! D6    D(2,1,6,19)           179.9091         estimate D2E/DX2                !
 ! D7    D(16,1,6,5)          -179.9844         estimate D2E/DX2                !
 ! D8    D(16,1,6,19)           -0.0766         estimate D2E/DX2                !
 ! D9    D(1,2,3,4)             -0.2525         estimate D2E/DX2                !
 ! D10   D(1,2,3,7)            179.7643         estimate D2E/DX2                !
 ! D11   D(17,2,3,4)           179.9308         estimate D2E/DX2                !
 ! D12   D(17,2,3,7)            -0.0524         estimate D2E/DX2                !
 ! D13   D(2,3,4,5)              0.1839         estimate D2E/DX2                !
 ! D14   D(2,3,4,8)           -179.9227         estimate D2E/DX2                !
 ! D15   D(7,3,4,5)           -179.8326         estimate D2E/DX2                !
 ! D16   D(7,3,4,8)              0.0609         estimate D2E/DX2                !
 ! D17   D(2,3,7,10)          -179.9531         estimate D2E/DX2                !
 ! D18   D(2,3,7,23)            -0.021          estimate D2E/DX2                !
 ! D19   D(4,3,7,10)             0.0639         estimate D2E/DX2                !
 ! D20   D(4,3,7,23)           179.996          estimate D2E/DX2                !
 ! D21   D(3,4,5,6)             -0.0283         estimate D2E/DX2                !
 ! D22   D(3,4,5,18)          -179.98           estimate D2E/DX2                !
 ! D23   D(8,4,5,6)           -179.9193         estimate D2E/DX2                !
 ! D24   D(8,4,5,18)             0.129          estimate D2E/DX2                !
 ! D25   D(3,4,8,9)             -0.0966         estimate D2E/DX2                !
 ! D26   D(3,4,8,22)           179.9991         estimate D2E/DX2                !
 ! D27   D(5,4,8,9)            179.7937         estimate D2E/DX2                !
 ! D28   D(5,4,8,22)            -0.1107         estimate D2E/DX2                !
 ! D29   D(4,5,6,1)             -0.0673         estimate D2E/DX2                !
 ! D30   D(4,5,6,19)          -179.9728         estimate D2E/DX2                !
 ! D31   D(18,5,6,1)           179.8829         estimate D2E/DX2                !
 ! D32   D(18,5,6,19)           -0.0226         estimate D2E/DX2                !
 ! D33   D(3,7,10,9)            -0.1515         estimate D2E/DX2                !
 ! D34   D(3,7,10,11)          179.9003         estimate D2E/DX2                !
 ! D35   D(23,7,10,9)          179.9164         estimate D2E/DX2                !
 ! D36   D(23,7,10,11)          -0.0317         estimate D2E/DX2                !
 ! D37   D(4,8,9,10)             0.0089         estimate D2E/DX2                !
 ! D38   D(4,8,9,15)          -179.9202         estimate D2E/DX2                !
 ! D39   D(22,8,9,10)          179.9133         estimate D2E/DX2                !
 ! D40   D(22,8,9,15)           -0.0159         estimate D2E/DX2                !
 ! D41   D(8,9,10,7)             0.115          estimate D2E/DX2                !
 ! D42   D(8,9,10,11)         -179.9353         estimate D2E/DX2                !
 ! D43   D(15,9,10,7)         -179.9538         estimate D2E/DX2                !
 ! D44   D(15,9,10,11)          -0.0041         estimate D2E/DX2                !
 ! D45   D(8,9,15,14)          179.9107         estimate D2E/DX2                !
 ! D46   D(8,9,15,24)           -0.1009         estimate D2E/DX2                !
 ! D47   D(10,9,15,14)          -0.0189         estimate D2E/DX2                !
 ! D48   D(10,9,15,24)         179.9695         estimate D2E/DX2                !
 ! D49   D(7,10,11,12)          -0.106          estimate D2E/DX2                !
 ! D50   D(7,10,11,13)        -179.9865         estimate D2E/DX2                !
 ! D51   D(9,10,11,12)         179.9455         estimate D2E/DX2                !
 ! D52   D(9,10,11,13)           0.065          estimate D2E/DX2                !
 ! D53   D(10,11,13,14)         -0.1018         estimate D2E/DX2                !
 ! D54   D(10,11,13,20)        179.9569         estimate D2E/DX2                !
 ! D55   D(12,11,13,14)       -179.9786         estimate D2E/DX2                !
 ! D56   D(12,11,13,20)          0.0801         estimate D2E/DX2                !
 ! D57   D(11,13,14,15)          0.078          estimate D2E/DX2                !
 ! D58   D(11,13,14,21)        179.9999         estimate D2E/DX2                !
 ! D59   D(20,13,14,15)       -179.9793         estimate D2E/DX2                !
 ! D60   D(20,13,14,21)         -0.0574         estimate D2E/DX2                !
 ! D61   D(13,14,15,9)          -0.0166         estimate D2E/DX2                !
 ! D62   D(13,14,15,24)        179.9954         estimate D2E/DX2                !
 ! D63   D(21,14,15,9)        -179.9366         estimate D2E/DX2                !
 ! D64   D(21,14,15,24)          0.0754         estimate D2E/DX2                !
 ! D65   D(9,15,24,25)         120.0674         estimate D2E/DX2                !
 ! D66   D(9,15,24,26)        -119.9326         estimate D2E/DX2                !
 ! D67   D(14,15,24,25)        -59.9443         estimate D2E/DX2                !
 ! D68   D(14,15,24,26)         60.0558         estimate D2E/DX2                !
 ! D69   D(15,24,26,27)        160.8364         estimate D2E/DX2                !
 ! D70   D(15,24,26,28)        -79.1635         estimate D2E/DX2                !
 ! D71   D(15,24,26,29)         40.8364         estimate D2E/DX2                !
 ! D72   D(25,24,26,27)        -79.1636         estimate D2E/DX2                !
 ! D73   D(25,24,26,28)         40.8364         estimate D2E/DX2                !
 ! D74   D(25,24,26,29)        160.8364         estimate D2E/DX2                !
 --------------------------------------------------------------------------------
 Trust Radius=3.00D-01 FncErr=1.00D-07 GrdErr=1.00D-06
 Number of steps in this run=    166 maximum allowed number of steps=    174.
 GradGradGradGradGradGradGradGradGradGradGradGradGradGradGradGradGradGrad

 Leave Link  103 at Thu Jun  3 14:33:35 2021, MaxMem=    33554432 cpu:         0.0
 (Enter /opt/app/gaussian09/e01/g09/l202.exe)
                          Input orientation:                          
 ---------------------------------------------------------------------
 Center     Atomic      Atomic             Coordinates (Angstroms)
 Number     Number       Type             X           Y           Z
 ---------------------------------------------------------------------
      1          6           0       -3.284813   -3.197997   -0.012916
      2          6           0       -1.920190   -3.197997   -0.012916
      3          6           0       -1.187299   -1.966776   -0.012916
      4          6           0       -1.911296   -0.735029   -0.018434
      5          6           0       -3.343536   -0.776520   -0.019734
      6          6           0       -4.007319   -1.968813   -0.016363
      7          6           0        0.211602   -1.943887   -0.008020
      8          6           0       -1.210919    0.476138   -0.020155
      9          6           0        0.188022    0.499022   -0.014530
     10          6           0        0.911991   -0.732681   -0.007110
     11          6           0        2.344173   -0.691057    0.000000
     12          1           0        2.890043   -1.646584    0.006601
     13          6           0        3.007910    0.501298    0.001042
     14          6           0        2.285427    1.730413   -0.007130
     15          6           0        0.920784    1.730268   -0.014497
     16          1           0       -3.850685   -4.141275   -0.010512
     17          1           0       -1.350864   -4.139731   -0.009810
     18          1           0       -3.889349    0.179026   -0.024338
     19          1           0       -5.106717   -2.004978   -0.017794
     20          1           0        4.107316    0.537202    0.007202
     21          1           0        2.851507    2.673590   -0.006035
     22          8           0       -1.935870    1.708743   -0.025699
     23          8           0        0.935987   -3.176824   -0.002410
     24          7           0        0.160001    2.988059   -0.022875
     25          1           0        0.387116    3.520434    0.792598
     26          6           0        0.504821    3.761291   -1.224587
     27          1           0       -0.258258    4.487413   -1.412622
     28          1           0        1.440271    4.258078   -1.072809
     29          1           0        0.583442    3.101211   -2.063045
 ---------------------------------------------------------------------
                    Distance matrix (angstroms):
                    1          2          3          4          5
     1  C    0.000000
     2  C    1.364623   0.000000
     3  C    2.432174   1.432841   0.000000
     4  C    2.820069   2.462990   1.428777   0.000000
     5  C    2.422199   2.808827   2.462948   1.432841   0.000000
     6  C    1.425805   2.422192   2.820023   2.432188   1.364618
     7  C    3.714530   2.473328   1.399097   2.442978   3.741910
     8  C    4.219047   3.741976   2.443039   1.399091   2.473299
     9  C    5.072330   4.255879   2.823415   2.435166   3.754855
    10  C    4.867338   3.754872   2.435168   2.823311   4.255772
    11  C    6.162013   4.946686   3.754853   4.255736   5.688385
    12  H    6.366797   5.054266   4.089942   4.887168   6.294062
    13  C    7.299544   6.162073   4.867377   5.072225   6.478743
    14  C    7.437529   6.478925   5.072383   4.867342   6.161988
    15  C    6.478800   5.688491   4.255837   3.754781   4.946558
    16  H    1.099996   2.148625   3.438325   3.919669   3.402773
    17  H    2.151054   1.100457   2.179105   3.450530   3.909224
    18  H    3.430726   3.909220   3.450460   2.179042   1.100455
    19  H    2.177763   3.402539   3.919607   3.438530   2.148935
    20  H    8.282251   7.091047   5.856898   6.151660   7.565830
    21  H    8.492939   7.566021   6.151829   5.856887   7.090980
    22  O    5.088802   4.906782   3.750995   2.443906   2.856237
    23  O    4.220866   2.856275   2.443905   3.750952   4.906738
    24  N    7.080546   6.526453   5.134755   4.260479   5.142649
    25  H    7.698651   7.149114   5.765163   4.904022   5.748170
    26  C    8.016306   7.468635   6.094438   5.244933   6.070688
    27  H    8.377633   7.986659   6.669247   5.652450   6.258439
    28  H    8.890604   8.246765   6.839320   6.105393   7.024311
    29  H    7.671143   7.081753   5.746568   5.012074   5.884987
                    6          7          8          9         10
     6  C    0.000000
     7  C    4.219003   0.000000
     8  C    3.714519   2.807175   0.000000
     9  C    4.867350   2.443031   1.399139   0.000000
    10  C    5.072250   1.399130   2.442982   1.428733   0.000000
    11  C    6.478764   2.473359   3.741848   2.462821   1.432804
    12  H    6.904923   2.694930   4.617852   3.450361   2.179013
    13  C    7.437418   3.714613   4.218957   2.819932   2.432210
    14  C    7.299521   4.219151   3.714540   2.432177   2.820134
    15  C    6.161932   3.741978   2.473263   1.432797   2.462976
    16  H    2.178109   4.618517   5.318737   6.151709   5.856757
    17  H    3.430697   2.695002   4.618002   4.887353   4.090050
    18  H    2.151091   4.617881   2.694862   4.089920   4.887164
    19  H    1.099994   5.318679   4.618786   5.856986   6.151723
    20  H    8.492819   4.618725   5.318656   3.919540   3.438446
    21  H    8.282240   5.318853   4.618690   3.438455   3.919746
    22  O    4.220830   4.237175   1.430000   2.444272   3.751161
    23  O    5.088788   1.430000   4.237175   3.751193   2.444266
    24  N    6.475892   4.932239   2.861674   2.489209   3.796004
    25  H    7.077945   5.525450   3.532990   3.133692   4.359360
    26  C    7.392787   5.840811   3.897005   3.493852   4.673738
    27  H    7.595252   6.599644   4.351650   4.249834   5.531214
    28  H    8.340652   6.411534   4.737083   4.101047   5.130543
    29  H    7.139267   5.460257   3.779436   3.335290   4.362745
                   11         12         13         14         15
    11  C    0.000000
    12  H    1.100477   0.000000
    13  C    1.364646   2.151121   0.000000
    14  C    2.422193   3.430723   1.425753   0.000000
    15  C    2.808747   3.909163   2.422128   1.364663   0.000000
    16  H    7.090866   7.187572   8.282146   8.492856   7.565841
    17  H    5.054379   4.919486   6.366960   6.905158   6.294227
    18  H    6.294000   7.020966   6.904831   6.366707   5.054090
    19  H    7.565875   8.004824   8.492876   8.282334   7.091040
    20  H    2.148801   2.500135   1.100009   2.177897   3.402626
    21  H    3.402686   4.320364   2.177927   1.100014   2.148865
    22  O    4.906982   5.877814   5.089165   4.221394   2.856757
    23  O    2.856927   2.481945   4.221547   5.089400   4.907131
    24  N    4.278671   5.379026   3.780891   2.469688   1.470000
    25  H    4.711151   5.794870   4.075575   2.728979   2.034920
    26  C    4.970537   6.037402   4.288960   2.962639   2.400500
    27  H    5.965292   7.039312   5.343727   4.005845   3.308586
    28  H    5.144113   6.175112   4.209994   2.870375   2.789214
    29  H    4.662363   5.669692   4.110724   3.000438   2.487938
                   16         17         18         19         20
    16  H    0.000000
    17  H    2.499822   0.000000
    18  H    4.320496   5.009569   0.000000
    19  H    2.478192   4.320147   2.500380   0.000000
    20  H    9.231373   7.187887   8.004745   9.558332   0.000000
    21  H    9.558336   8.005078   7.187651   9.231601   2.478182
    22  O    6.155441   5.877681   2.481152   4.883242   6.155785
    23  O    4.882874   2.481316   5.877591   6.155301   4.883791
    24  N    8.180047   7.286170   4.928276   7.257325   4.646386
    25  H    8.792367   7.895731   5.488218   7.833844   4.832847
    26  C    9.104667   8.206424   5.794993   8.136066   4.988991
    27  H    9.451227   8.808478   5.802960   8.222179   6.056262
    28  H    9.983577   8.913114   6.792849   9.121512   4.703666
    29  H    8.736588   7.771007   5.718509   7.914172   4.824703
                   21         22         23         24         25
    21  H    0.000000
    22  O    4.883677   0.000000
    23  O    6.156020   5.667175   0.000000
    24  N    2.709867   2.455470   6.213563   0.000000
    25  H    2.725470   3.057466   6.766578   1.000000   0.000000
    26  C    2.859178   3.406943   7.058121   1.470000   2.034921
    27  H    3.865111   3.529723   7.883873   2.086720   2.492900
    28  H    2.374910   4.358196   7.528468   2.086720   2.265612
    29  H    3.091646   3.526568   6.616966   2.086720   2.892921
                   26         27         28         29
    26  C    0.000000
    27  H    1.070000   0.000000
    28  H    1.070000   1.747303   0.000000
    29  H    1.070000   1.747303   1.747303   0.000000
 Stoichiometry    C15H11NO2
 Framework group  C1[X(C15H11NO2)]
 Deg. of freedom    81
 Full point group                 C1      NOp   1
 Largest Abelian subgroup         C1      NOp   1
 Largest concise Abelian subgroup C1      NOp   1
                         Standard orientation:                         
 ---------------------------------------------------------------------
 Center     Atomic      Atomic             Coordinates (Angstroms)
 Number     Number       Type             X           Y           Z
 ---------------------------------------------------------------------
      1          6           0       -4.169617   -0.278276    0.109272
      2          6           0       -3.290378    0.765116    0.130888
      3          6           0       -1.878713    0.535888    0.043176
      4          6           0       -1.405050   -0.807969   -0.062156
      5          6           0       -2.359447   -1.876536   -0.080200
      6          6           0       -3.697055   -1.619217    0.002106
      7          6           0       -0.960176    1.591123    0.058609
      8          6           0       -0.029548   -1.049307   -0.147050
      9          6           0        0.888974    0.006010   -0.132343
     10          6           0        0.415228    1.349939   -0.028910
     11          6           0        1.369390    2.418748   -0.016668
     12          1           0        0.991665    3.449335    0.062481
     13          6           0        2.706788    2.161637   -0.103379
     14          6           0        3.179555    0.820456   -0.205830
     15          6           0        2.300572   -0.223331   -0.220092
     16          1           0       -5.254084   -0.105853    0.174006
     17          1           0       -3.642285    1.804567    0.212779
     18          1           0       -1.981775   -2.906963   -0.161340
     19          1           0       -4.432929   -2.436716   -0.010965
     20          1           0        3.442224    2.979613   -0.095000
     21          1           0        4.263900    0.648480   -0.274039
     22          8           0        0.444156   -2.394445   -0.252441
     23          8           0       -1.434502    2.936046    0.163952
     24          7           0        2.770554   -1.612200   -0.325257
     25          1           0        3.281089   -1.727726   -1.177318
     26          6           0        3.644635   -1.921417    0.815473
     27          1           0        3.716715   -2.982585    0.932209
     28          1           0        4.618596   -1.515044    0.638951
     29          1           0        3.234829   -1.491700    1.705587
 ---------------------------------------------------------------------
 Rotational constants (GHZ):      0.7452038      0.3539281      0.2443455
 Leave Link  202 at Thu Jun  3 14:33:36 2021, MaxMem=    33554432 cpu:         0.0
 (Enter /opt/app/gaussian09/e01/g09/l301.exe)
 Standard basis: 6-31G(d) (6D, 7F)
 Ernie: Thresh=  0.10000D-02 Tol=  0.10000D-05 Strict=F.
 There are   292 symmetry adapted cartesian basis functions of A   symmetry.
 There are   292 symmetry adapted basis functions of A   symmetry.
   292 basis functions,   548 primitive gaussians,   292 cartesian basis functions
    62 alpha electrons       62 beta electrons
       nuclear repulsion energy      1219.3615243916 Hartrees.
 IExCor=  402 DFT=T Ex+Corr=B3LYP ExCW=0 ScaHFX=  0.200000
 ScaDFX=  0.800000  0.720000  1.000000  0.810000 ScalE2=  1.000000  1.000000
 IRadAn=      5 IRanWt=     -1 IRanGd=            0 ICorTp=0 IEmpDi=  4
 NAtoms=   29 NActive=   29 NUniq=   29 SFac= 1.00D+00 NAtFMM=   60 NAOKFM=F Big=F
 Integral buffers will be    131072 words long.
 Raffenetti 2 integral format.
 Two-electron integral symmetry is turned on.
 Leave Link  301 at Thu Jun  3 14:33:37 2021, MaxMem=    33554432 cpu:         0.1
 (Enter /opt/app/gaussian09/e01/g09/l302.exe)
 NPDir=0 NMtPBC=     1 NCelOv=     1 NCel=       1 NClECP=     1 NCelD=      1
         NCelK=      1 NCelE2=     1 NClLst=     1 CellRange=     0.0.
 One-electron integrals computed using PRISM.
 NBasis=   292 RedAO= T EigKep=  1.73D-04  NBF=   292
 NBsUse=   292 1.00D-06 EigRej= -1.00D+00 NBFU=   292
 Precomputing XC quadrature grid using
 IXCGrd= 4 IRadAn=           5 IRanWt=          -1 IRanGd=           0 AccXCQ= 0.00D+00.
 Generated NRdTot=       0 NPtTot=           0 NUsed=           0 NTot=          32
 NSgBfM=   291   291   291   291   291 MxSgAt=    29 MxSgA2=    29.
 Leave Link  302 at Thu Jun  3 14:33:39 2021, MaxMem=    33554432 cpu:         1.6
 (Enter /opt/app/gaussian09/e01/g09/l303.exe)
 DipDrv:  MaxL=1.
 Leave Link  303 at Thu Jun  3 14:33:40 2021, MaxMem=    33554432 cpu:         0.1
 (Enter /opt/app/gaussian09/e01/g09/l401.exe)
 ExpMin= 1.61D-01 ExpMax= 5.48D+03 ExpMxC= 8.25D+02 IAcc=3 IRadAn=         5 AccDes= 0.00D+00
 Harris functional with IExCor=  402 and IRadAn=       5 diagonalized for initial guess.
 HarFok:  IExCor=  402 AccDes= 0.00D+00 IRadAn=         5 IDoV= 1 UseB2=F ITyADJ=14
 ICtDFT=  3500011 ScaDFX=  1.000000  1.000000  1.000000  1.000000
 FoFCou: FMM=F IPFlag=           0 FMFlag=      100000 FMFlg1=           0
         NFxFlg=           0 DoJE=T BraDBF=F KetDBF=T FulRan=T
         wScrn=  0.000000 ICntrl=     500 IOpCl=  0 I1Cent=   200000004 NGrid=           0
         NMat0=    1 NMatS0=      1 NMatT0=    0 NMatD0=    1 NMtDS0=    0 NMtDT0=    0
 Petite list used in FoFCou.
 Harris En= -783.315444957242    
 JPrj=0 DoOrth=F DoCkMO=F.
 Leave Link  401 at Thu Jun  3 14:34:01 2021, MaxMem=    33554432 cpu:        21.4
 (Enter /opt/app/gaussian09/e01/g09/l502.exe)
 Closed shell SCF:
 Using DIIS extrapolation, IDIIS=  1040.
 Integral symmetry usage will be decided dynamically.
 IVT=      278290 IEndB=      278290 NGot=    33554432 MDV=    33378339
 LenX=    33378339 LenY=    33292634
 Requested convergence on RMS density matrix=1.00D-08 within 128 cycles.
 Requested convergence on MAX density matrix=1.00D-06.
 Requested convergence on             energy=1.00D-06.
 No special actions if energy rises.
 Fock matrices will be formed incrementally for  20 cycles.
 Integral accuracy reduced to 1.0D-05 until final iterations.

 Cycle   1  Pass 0  IDiag  1:
 FoFJK:  IHMeth= 1 ICntrl=       0 DoSepK=F KAlg= 0 I1Cent=   0 FoldK=F
 IRaf= 800000000 NMat=   1 IRICut=       1 DoRegI=T DoRafI=F ISym2E= 0.
 FoFCou: FMM=F IPFlag=           0 FMFlag=      100000 FMFlg1=           0
         NFxFlg=           0 DoJE=F BraDBF=F KetDBF=F FulRan=T
         wScrn=  0.000000 ICntrl=       0 IOpCl=  0 I1Cent=           0 NGrid=           0
         NMat0=    1 NMatS0=      1 NMatT0=    0 NMatD0=    1 NMtDS0=    0 NMtDT0=    0
 Symmetry not used in FoFCou.
 E= -782.954300671763    
 DIIS: error= 3.74D-02 at cycle   1 NSaved=   1.
 NSaved= 1 IEnMin= 1 EnMin= -782.954300671763     IErMin= 1 ErrMin= 3.74D-02
 ErrMax= 3.74D-02  0.00D+00 EMaxC= 1.00D-01 BMatC= 3.74D-01 BMatP= 3.74D-01
 IDIUse=3 WtCom= 6.26D-01 WtEn= 3.74D-01
 Coeff-Com:  0.100D+01
 Coeff-En:   0.100D+01
 Coeff:      0.100D+01
 Gap=    -0.033 Goal=   None    Shift=    0.000
 GapD=   -0.033 DampG=0.250 DampE=0.500 DampFc=0.2500 IDamp=-1.
 Damping current iteration by 2.50D-01
 RMSDP=8.33D-03 MaxDP=3.47D-01              OVMax= 8.57D-01

 Cycle   2  Pass 0  IDiag  1:
 RMSU=  2.05D-03    CP:  9.84D-01
 E= -783.018197494108     Delta-E=       -0.063896822345 Rises=F Damp=T
 DIIS: error= 2.40D-02 at cycle   2 NSaved=   2.
 NSaved= 2 IEnMin= 2 EnMin= -783.018197494108     IErMin= 2 ErrMin= 2.40D-02
 ErrMax= 2.40D-02  0.00D+00 EMaxC= 1.00D-01 BMatC= 1.06D-01 BMatP= 3.74D-01
 IDIUse=3 WtCom= 7.60D-01 WtEn= 2.40D-01
 Coeff-Com: -0.168D+00 0.117D+01
 Coeff-En:   0.283D+00 0.717D+00
 Coeff:     -0.601D-01 0.106D+01
 Gap=    -0.130 Goal=   None    Shift=    0.000
 RMSDP=3.94D-03 MaxDP=1.96D-01 DE=-6.39D-02 OVMax= 7.15D-01

 Cycle   3  Pass 0  IDiag  1:
 RMSU=  3.77D-03    CP:  9.39D-01  1.27D+00
 E= -782.752768267699     Delta-E=        0.265429226409 Rises=F Damp=F
 DIIS: error= 5.97D-02 at cycle   3 NSaved=   3.
 NSaved= 3 IEnMin= 2 EnMin= -783.018197494108     IErMin= 2 ErrMin= 2.40D-02
 ErrMax= 5.97D-02  0.00D+00 EMaxC= 1.00D-01 BMatC= 4.93D-01 BMatP= 1.06D-01
 IDIUse=2 WtCom= 0.00D+00 WtEn= 1.00D+00
 Coeff-En:   0.000D+00 0.677D+00 0.323D+00
 Coeff:      0.000D+00 0.677D+00 0.323D+00
 Gap=     0.150 Goal=   None    Shift=    0.000
 RMSDP=4.55D-03 MaxDP=2.53D-01 DE= 2.65D-01 OVMax= 5.03D-01

 Cycle   4  Pass 0  IDiag  1:
 RMSU=  3.01D-03    CP:  9.32D-01  1.72D+00  1.31D-01
 E= -782.915871574168     Delta-E=       -0.163103306469 Rises=F Damp=F
 DIIS: error= 4.46D-02 at cycle   4 NSaved=   4.
 NSaved= 4 IEnMin= 2 EnMin= -783.018197494108     IErMin= 2 ErrMin= 2.40D-02
 ErrMax= 4.46D-02  0.00D+00 EMaxC= 1.00D-01 BMatC= 3.56D-01 BMatP= 1.06D-01
 IDIUse=2 WtCom= 0.00D+00 WtEn= 1.00D+00
 EnCoef did     1 forward-backward iterations
 Coeff-En:   0.166D-01 0.000D+00 0.436D+00 0.547D+00
 Coeff:      0.166D-01 0.000D+00 0.436D+00 0.547D+00
 Gap=     0.032 Goal=   None    Shift=    0.000
 RMSDP=3.12D-03 MaxDP=1.62D-01 DE=-1.63D-01 OVMax= 5.69D-01

 Cycle   5  Pass 0  IDiag  1:
 RMSU=  1.29D-03    CP:  9.45D-01  9.06D-01  5.16D-01  4.15D-01
 E= -783.256911576037     Delta-E=       -0.341040001869 Rises=F Damp=F
 DIIS: error= 1.75D-02 at cycle   5 NSaved=   5.
 NSaved= 5 IEnMin= 5 EnMin= -783.256911576037     IErMin= 5 ErrMin= 1.75D-02
 ErrMax= 1.75D-02  0.00D+00 EMaxC= 1.00D-01 BMatC= 5.50D-02 BMatP= 1.06D-01
 IDIUse=3 WtCom= 8.25D-01 WtEn= 1.75D-01
 Coeff-Com: -0.250D+00 0.331D+00 0.572D-01 0.156D+00 0.705D+00
 Coeff-En:   0.000D+00 0.000D+00 0.000D+00 0.189D+00 0.811D+00
 Coeff:     -0.206D+00 0.274D+00 0.472D-01 0.162D+00 0.724D+00
 Gap=     0.056 Goal=   None    Shift=    0.000
 RMSDP=1.01D-03 MaxDP=3.82D-02 DE=-3.41D-01 OVMax= 7.44D-02

 Cycle   6  Pass 0  IDiag  1:
 RMSU=  8.77D-04    CP:  9.45D-01  1.09D+00  4.99D-01  4.67D-01  7.88D-01
 E= -783.298955715261     Delta-E=       -0.042044139225 Rises=F Damp=F
 DIIS: error= 7.33D-03 at cycle   6 NSaved=   6.
 NSaved= 6 IEnMin= 6 EnMin= -783.298955715261     IErMin= 6 ErrMin= 7.33D-03
 ErrMax= 7.33D-03  0.00D+00 EMaxC= 1.00D-01 BMatC= 1.21D-02 BMatP= 5.50D-02
 IDIUse=3 WtCom= 9.27D-01 WtEn= 7.33D-02
 Coeff-Com: -0.231D+00 0.302D+00-0.353D-01 0.224D-01 0.421D+00 0.520D+00
 Coeff-En:   0.000D+00 0.000D+00 0.000D+00 0.000D+00 0.000D+00 0.100D+01
 Coeff:     -0.214D+00 0.280D+00-0.327D-01 0.208D-01 0.390D+00 0.556D+00
 Gap=     0.056 Goal=   None    Shift=    0.000
 RMSDP=4.90D-04 MaxDP=1.87D-02 DE=-4.20D-02 OVMax= 3.20D-02

 Cycle   7  Pass 0  IDiag  1:
 RMSU=  3.08D-04    CP:  9.45D-01  1.15D+00  4.87D-01  4.37D-01  1.03D+00
                    CP:  8.35D-01
 E= -783.309716757425     Delta-E=       -0.010761042163 Rises=F Damp=F
 DIIS: error= 4.79D-03 at cycle   7 NSaved=   7.
 NSaved= 7 IEnMin= 7 EnMin= -783.309716757425     IErMin= 7 ErrMin= 4.79D-03
 ErrMax= 4.79D-03  0.00D+00 EMaxC= 1.00D-01 BMatC= 2.48D-03 BMatP= 1.21D-02
 IDIUse=3 WtCom= 9.52D-01 WtEn= 4.79D-02
 Coeff-Com: -0.110D+00 0.154D+00-0.355D-01 0.161D-01 0.157D+00 0.327D+00
 Coeff-Com:  0.492D+00
 Coeff-En:   0.000D+00 0.000D+00 0.000D+00 0.000D+00 0.000D+00 0.000D+00
 Coeff-En:   0.100D+01
 Coeff:     -0.105D+00 0.147D+00-0.338D-01 0.153D-01 0.150D+00 0.311D+00
 Coeff:      0.516D+00
 Gap=     0.056 Goal=   None    Shift=    0.000
 RMSDP=1.91D-04 MaxDP=8.88D-03 DE=-1.08D-02 OVMax= 1.98D-02

 Cycle   8  Pass 0  IDiag  1:
 RMSU=  1.43D-04    CP:  9.45D-01  1.14D+00  4.74D-01  4.48D-01  1.03D+00
                    CP:  9.51D-01  8.57D-01
 E= -783.311764213088     Delta-E=       -0.002047455663 Rises=F Damp=F
 DIIS: error= 2.38D-03 at cycle   8 NSaved=   8.
 NSaved= 8 IEnMin= 8 EnMin= -783.311764213088     IErMin= 8 ErrMin= 2.38D-03
 ErrMax= 2.38D-03  0.00D+00 EMaxC= 1.00D-01 BMatC= 5.14D-04 BMatP= 2.48D-03
 IDIUse=3 WtCom= 9.76D-01 WtEn= 2.38D-02
 Coeff-Com:  0.142D-01-0.895D-02-0.146D-01 0.696D-02-0.867D-01-0.329D-01
 Coeff-Com:  0.324D+00 0.798D+00
 Coeff-En:   0.000D+00 0.000D+00 0.000D+00 0.000D+00 0.000D+00 0.000D+00
 Coeff-En:   0.000D+00 0.100D+01
 Coeff:      0.139D-01-0.874D-02-0.143D-01 0.679D-02-0.846D-01-0.321D-01
 Coeff:      0.317D+00 0.802D+00
 Gap=     0.054 Goal=   None    Shift=    0.000
 RMSDP=1.69D-04 MaxDP=9.06D-03 DE=-2.05D-03 OVMax= 2.75D-02

 Cycle   9  Pass 0  IDiag  1:
 RMSU=  9.59D-05    CP:  9.45D-01  1.14D+00  4.58D-01  4.49D-01  1.06D+00
                    CP:  1.04D+00  1.14D+00  1.14D+00
 E= -783.312414979077     Delta-E=       -0.000650765989 Rises=F Damp=F
 DIIS: error= 1.02D-03 at cycle   9 NSaved=   9.
 NSaved= 9 IEnMin= 9 EnMin= -783.312414979077     IErMin= 9 ErrMin= 1.02D-03
 ErrMax= 1.02D-03  0.00D+00 EMaxC= 1.00D-01 BMatC= 1.08D-04 BMatP= 5.14D-04
 IDIUse=3 WtCom= 9.90D-01 WtEn= 1.02D-02
 Coeff-Com:  0.553D-02-0.630D-02 0.877D-03-0.923D-03-0.259D-01-0.367D-01
 Coeff-Com:  0.463D-01 0.393D+00 0.624D+00
 Coeff-En:   0.000D+00 0.000D+00 0.000D+00 0.000D+00 0.000D+00 0.000D+00
 Coeff-En:   0.000D+00 0.154D+00 0.846D+00
 Coeff:      0.547D-02-0.624D-02 0.868D-03-0.913D-03-0.256D-01-0.363D-01
 Coeff:      0.458D-01 0.391D+00 0.626D+00
 Gap=     0.056 Goal=   None    Shift=    0.000
 RMSDP=6.31D-05 MaxDP=2.05D-03 DE=-6.51D-04 OVMax= 1.14D-02

 Cycle  10  Pass 0  IDiag  1:
 RMSU=  3.80D-05    CP:  9.45D-01  1.14D+00  4.65D-01  4.38D-01  1.07D+00
                    CP:  1.04D+00  1.14D+00  1.33D+00  1.02D+00
 E= -783.312568056840     Delta-E=       -0.000153077763 Rises=F Damp=F
 DIIS: error= 3.20D-04 at cycle  10 NSaved=  10.
 NSaved=10 IEnMin=10 EnMin= -783.312568056840     IErMin=10 ErrMin= 3.20D-04
 ErrMax= 3.20D-04  0.00D+00 EMaxC= 1.00D-01 BMatC= 1.37D-05 BMatP= 1.08D-04
 IDIUse=3 WtCom= 9.97D-01 WtEn= 3.20D-03
 Coeff-Com: -0.276D-02 0.396D-02 0.151D-02-0.154D-02-0.121D-04-0.582D-02
 Coeff-Com:  0.159D-01 0.146D+00 0.307D+00 0.535D+00
 Coeff-En:   0.000D+00 0.000D+00 0.000D+00 0.000D+00 0.000D+00 0.000D+00
 Coeff-En:   0.000D+00 0.000D+00 0.000D+00 0.100D+01
 Coeff:     -0.275D-02 0.395D-02 0.150D-02-0.154D-02-0.120D-04-0.580D-02
 Coeff:      0.159D-01 0.146D+00 0.306D+00 0.537D+00
 Gap=     0.056 Goal=   None    Shift=    0.000
 RMSDP=2.86D-05 MaxDP=9.73D-04 DE=-1.53D-04 OVMax= 5.35D-03

 Cycle  11  Pass 0  IDiag  1:
 RMSU=  1.59D-05    CP:  9.45D-01  1.13D+00  4.67D-01  4.33D-01  1.07D+00
                    CP:  1.04D+00  1.15D+00  1.38D+00  1.13D+00  1.13D+00
 E= -783.312592286913     Delta-E=       -0.000024230073 Rises=F Damp=F
 DIIS: error= 7.54D-05 at cycle  11 NSaved=  11.
 NSaved=11 IEnMin=11 EnMin= -783.312592286913     IErMin=11 ErrMin= 7.54D-05
 ErrMax= 7.54D-05  0.00D+00 EMaxC= 1.00D-01 BMatC= 1.48D-06 BMatP= 1.37D-05
 IDIUse=1 WtCom= 1.00D+00 WtEn= 0.00D+00
 Coeff-Com: -0.364D-02 0.468D-02 0.567D-03-0.702D-03 0.832D-02 0.812D-02
 Coeff-Com: -0.536D-02-0.511D-01-0.450D-01 0.282D+00 0.802D+00
 Coeff:     -0.364D-02 0.468D-02 0.567D-03-0.702D-03 0.832D-02 0.812D-02
 Coeff:     -0.536D-02-0.511D-01-0.450D-01 0.282D+00 0.802D+00
 Gap=     0.056 Goal=   None    Shift=    0.000
 RMSDP=3.64D-05 MaxDP=1.47D-03 DE=-2.42D-05 OVMax= 8.10D-03

 Cycle  12  Pass 0  IDiag  1:
 RMSU=  8.60D-06    CP:  9.45D-01  1.13D+00  4.69D-01  4.27D-01  1.07D+00
                    CP:  1.05D+00  1.17D+00  1.47D+00  1.29D+00  1.58D+00
                    CP:  1.30D+00
 E= -783.312605560410     Delta-E=       -0.000013273497 Rises=F Damp=F
 DIIS: error= 1.34D-04 at cycle  12 NSaved=  12.
 NSaved=12 IEnMin=12 EnMin= -783.312605560410     IErMin=11 ErrMin= 7.54D-05
 ErrMax= 1.34D-04  0.00D+00 EMaxC= 1.00D-01 BMatC= 1.49D-06 BMatP= 1.48D-06
 IDIUse=1 WtCom= 1.00D+00 WtEn= 0.00D+00
 Coeff-Com: -0.226D-03 0.133D-03-0.253D-03-0.360D-04 0.261D-02 0.364D-02
 Coeff-Com: -0.136D-01-0.804D-01-0.121D+00 0.964D-02 0.510D+00 0.689D+00
 Coeff:     -0.226D-03 0.133D-03-0.253D-03-0.360D-04 0.261D-02 0.364D-02
 Coeff:     -0.136D-01-0.804D-01-0.121D+00 0.964D-02 0.510D+00 0.689D+00
 Gap=     0.056 Goal=   None    Shift=    0.000
 RMSDP=2.88D-05 MaxDP=1.14D-03 DE=-1.33D-05 OVMax= 6.44D-03

 Cycle  13  Pass 0  IDiag  1:
 RMSU=  5.10D-06    CP:  9.45D-01  1.13D+00  4.69D-01  4.23D-01  1.08D+00
                    CP:  1.06D+00  1.20D+00  1.55D+00  1.41D+00  1.90D+00
                    CP:  1.77D+00  1.11D+00
 E= -783.312612999709     Delta-E=       -0.000007439299 Rises=F Damp=F
 DIIS: error= 4.07D-05 at cycle  13 NSaved=  13.
 NSaved=13 IEnMin=13 EnMin= -783.312612999709     IErMin=13 ErrMin= 4.07D-05
 ErrMax= 4.07D-05  0.00D+00 EMaxC= 1.00D-01 BMatC= 2.50D-07 BMatP= 1.48D-06
 IDIUse=1 WtCom= 1.00D+00 WtEn= 0.00D+00
 Coeff-Com:  0.749D-03-0.116D-02-0.350D-03 0.199D-03-0.186D-04 0.761D-03
 Coeff-Com: -0.887D-02-0.408D-01-0.618D-01-0.524D-01 0.966D-01 0.391D+00
 Coeff-Com:  0.676D+00
 Coeff:      0.749D-03-0.116D-02-0.350D-03 0.199D-03-0.186D-04 0.761D-03
 Coeff:     -0.887D-02-0.408D-01-0.618D-01-0.524D-01 0.966D-01 0.391D+00
 Coeff:      0.676D+00
 Gap=     0.056 Goal=   None    Shift=    0.000
 RMSDP=1.52D-05 MaxDP=6.13D-04 DE=-7.44D-06 OVMax= 3.42D-03

 Cycle  14  Pass 0  IDiag  1:
 RMSU=  2.22D-06    CP:  9.45D-01  1.13D+00  4.69D-01  4.21D-01  1.08D+00
                    CP:  1.07D+00  1.21D+00  1.60D+00  1.48D+00  2.08D+00
                    CP:  1.99D+00  1.44D+00  1.09D+00
 E= -783.312614766614     Delta-E=       -0.000001766905 Rises=F Damp=F
 DIIS: error= 9.62D-06 at cycle  14 NSaved=  14.
 NSaved=14 IEnMin=14 EnMin= -783.312614766614     IErMin=14 ErrMin= 9.62D-06
 ErrMax= 9.62D-06  0.00D+00 EMaxC= 1.00D-01 BMatC= 5.46D-08 BMatP= 2.50D-07
 IDIUse=1 WtCom= 1.00D+00 WtEn= 0.00D+00
 Coeff-Com:  0.100D-03-0.460D-04-0.124D-03 0.354D-04-0.464D-03 0.108D-03
 Coeff-Com:  0.589D-03 0.889D-02 0.164D-01-0.261D-01-0.167D+00-0.906D-01
 Coeff-Com:  0.407D+00 0.852D+00
 Coeff:      0.100D-03-0.460D-04-0.124D-03 0.354D-04-0.464D-03 0.108D-03
 Coeff:      0.589D-03 0.889D-02 0.164D-01-0.261D-01-0.167D+00-0.906D-01
 Coeff:      0.407D+00 0.852D+00
 Gap=     0.056 Goal=   None    Shift=    0.000
 RMSDP=1.10D-05 MaxDP=4.46D-04 DE=-1.77D-06 OVMax= 2.50D-03

 Cycle  15  Pass 0  IDiag  1:
 RMSU=  1.02D-06    CP:  9.45D-01  1.13D+00  4.70D-01  4.20D-01  1.08D+00
                    CP:  1.07D+00  1.22D+00  1.63D+00  1.53D+00  2.21D+00
                    CP:  2.17D+00  1.67D+00  1.46D+00  9.72D-01
 E= -783.312615314216     Delta-E=       -0.000000547602 Rises=F Damp=F
 DIIS: error= 1.01D-05 at cycle  15 NSaved=  15.
 NSaved=15 IEnMin=15 EnMin= -783.312615314216     IErMin=14 ErrMin= 9.62D-06
 ErrMax= 1.01D-05  0.00D+00 EMaxC= 1.00D-01 BMatC= 2.29D-08 BMatP= 5.46D-08
 IDIUse=1 WtCom= 1.00D+00 WtEn= 0.00D+00
 Coeff-Com: -0.134D-03 0.241D-03-0.172D-04-0.764D-05-0.860D-04 0.783D-04
 Coeff-Com:  0.136D-02 0.109D-01 0.205D-01-0.428D-02-0.116D+00-0.134D+00
 Coeff-Com:  0.148D+00 0.541D+00 0.533D+00
 Coeff:     -0.134D-03 0.241D-03-0.172D-04-0.764D-05-0.860D-04 0.783D-04
 Coeff:      0.136D-02 0.109D-01 0.205D-01-0.428D-02-0.116D+00-0.134D+00
 Coeff:      0.148D+00 0.541D+00 0.533D+00
 Gap=     0.056 Goal=   None    Shift=    0.000
 RMSDP=2.53D-06 MaxDP=9.93D-05 DE=-5.48D-07 OVMax= 5.62D-04

 Initial convergence to 1.0D-05 achieved.  Increase integral accuracy.
 Cycle  16  Pass 1  IDiag  1:
 E= -783.312635868492     Delta-E=       -0.000020554276 Rises=F Damp=F
 DIIS: error= 6.65D-05 at cycle   1 NSaved=   1.
 NSaved= 1 IEnMin= 1 EnMin= -783.312635868492     IErMin= 1 ErrMin= 6.65D-05
 ErrMax= 6.65D-05  0.00D+00 EMaxC= 1.00D-01 BMatC= 5.03D-07 BMatP= 5.03D-07
 IDIUse=1 WtCom= 1.00D+00 WtEn= 0.00D+00
 Coeff-Com:  0.100D+01
 Coeff:      0.100D+01
 Gap=     0.056 Goal=   None    Shift=    0.000
 RMSDP=2.53D-06 MaxDP=9.93D-05 DE=-2.06D-05 OVMax= 3.00D-04

 Cycle  17  Pass 1  IDiag  1:
 RMSU=  5.14D-05    CP:  1.00D+00
 E= -783.312636129027     Delta-E=       -0.000000260535 Rises=F Damp=F
 DIIS: error= 3.50D-05 at cycle   2 NSaved=   2.
 NSaved= 2 IEnMin= 2 EnMin= -783.312636129027     IErMin= 2 ErrMin= 3.50D-05
 ErrMax= 3.50D-05  0.00D+00 EMaxC= 1.00D-01 BMatC= 1.10D-07 BMatP= 5.03D-07
 IDIUse=1 WtCom= 1.00D+00 WtEn= 0.00D+00
 Coeff-Com:  0.203D+00 0.797D+00
 Coeff:      0.203D+00 0.797D+00
 Gap=     0.056 Goal=   None    Shift=    0.000
 RMSDP=4.94D-06 MaxDP=3.60D-04 DE=-2.61D-07 OVMax= 9.23D-04

 Cycle  18  Pass 1  IDiag  1:
 RMSU=  4.92D-06    CP:  1.00D+00  1.01D+00
 E= -783.312635264439     Delta-E=        0.000000864588 Rises=F Damp=F
 DIIS: error= 1.02D-04 at cycle   3 NSaved=   3.
 NSaved= 3 IEnMin= 2 EnMin= -783.312636129027     IErMin= 2 ErrMin= 3.50D-05
 ErrMax= 1.02D-04  0.00D+00 EMaxC= 1.00D-01 BMatC= 9.95D-07 BMatP= 1.10D-07
 IDIUse=3 WtCom= 4.97D-01 WtEn= 5.03D-01
 Coeff-Com: -0.209D-02 0.752D+00 0.250D+00
 Coeff-En:   0.000D+00 0.810D+00 0.190D+00
 Coeff:     -0.104D-02 0.781D+00 0.220D+00
 Gap=     0.056 Goal=   None    Shift=    0.000
 RMSDP=3.06D-06 MaxDP=2.23D-04 DE= 8.65D-07 OVMax= 5.76D-04

 Cycle  19  Pass 1  IDiag  1:
 RMSU=  4.43D-07    CP:  1.00D+00  1.01D+00  3.88D-01
 E= -783.312636211491     Delta-E=       -0.000000947051 Rises=F Damp=F
 DIIS: error= 1.76D-05 at cycle   4 NSaved=   4.
 NSaved= 4 IEnMin= 4 EnMin= -783.312636211491     IErMin= 4 ErrMin= 1.76D-05
 ErrMax= 1.76D-05  0.00D+00 EMaxC= 1.00D-01 BMatC= 2.87D-08 BMatP= 1.10D-07
 IDIUse=1 WtCom= 1.00D+00 WtEn= 0.00D+00
 Coeff-Com: -0.406D-02 0.521D+00 0.114D+00 0.369D+00
 Coeff:     -0.406D-02 0.521D+00 0.114D+00 0.369D+00
 Gap=     0.056 Goal=   None    Shift=    0.000
 RMSDP=6.61D-07 MaxDP=4.75D-05 DE=-9.47D-07 OVMax= 1.12D-04

 Cycle  20  Pass 1  IDiag  1:
 RMSU=  1.84D-07    CP:  1.00D+00  1.01D+00  2.66D-01  5.59D-01
 E= -783.312636241407     Delta-E=       -0.000000029916 Rises=F Damp=F
 DIIS: error= 1.20D-06 at cycle   5 NSaved=   5.
 NSaved= 5 IEnMin= 5 EnMin= -783.312636241407     IErMin= 5 ErrMin= 1.20D-06
 ErrMax= 1.20D-06  0.00D+00 EMaxC= 1.00D-01 BMatC= 2.21D-10 BMatP= 2.87D-08
 IDIUse=1 WtCom= 1.00D+00 WtEn= 0.00D+00
 Coeff-Com: -0.275D-02 0.332D+00 0.675D-01 0.260D+00 0.344D+00
 Coeff:     -0.275D-02 0.332D+00 0.675D-01 0.260D+00 0.344D+00
 Gap=     0.056 Goal=   None    Shift=    0.000
 RMSDP=7.50D-08 MaxDP=4.50D-06 DE=-2.99D-08 OVMax= 7.57D-06

 Cycle  21  Pass 1  IDiag  1:
 RMSU=  6.78D-08    CP:  1.00D+00  1.01D+00  2.64D-01  6.15D-01  9.14D-01
 E= -783.312636241618     Delta-E=       -0.000000000211 Rises=F Damp=F
 DIIS: error= 4.08D-07 at cycle   6 NSaved=   6.
 NSaved= 6 IEnMin= 6 EnMin= -783.312636241618     IErMin= 6 ErrMin= 4.08D-07
 ErrMax= 4.08D-07  0.00D+00 EMaxC= 1.00D-01 BMatC= 2.97D-11 BMatP= 2.21D-10
 IDIUse=1 WtCom= 1.00D+00 WtEn= 0.00D+00
 Coeff-Com: -0.110D-02 0.126D+00 0.232D-01 0.107D+00 0.253D+00 0.492D+00
 Coeff:     -0.110D-02 0.126D+00 0.232D-01 0.107D+00 0.253D+00 0.492D+00
 Gap=     0.056 Goal=   None    Shift=    0.000
 RMSDP=4.95D-08 MaxDP=1.68D-06 DE=-2.11D-10 OVMax= 9.85D-06

 Cycle  22  Pass 1  IDiag  1:
 RMSU=  3.64D-08    CP:  1.00D+00  1.01D+00  2.63D-01  6.47D-01  1.08D+00
                    CP:  1.05D+00
 E= -783.312636241655     Delta-E=       -0.000000000037 Rises=F Damp=F
 DIIS: error= 1.36D-07 at cycle   7 NSaved=   7.
 NSaved= 7 IEnMin= 7 EnMin= -783.312636241655     IErMin= 7 ErrMin= 1.36D-07
 ErrMax= 1.36D-07  0.00D+00 EMaxC= 1.00D-01 BMatC= 5.52D-12 BMatP= 2.97D-11
 IDIUse=1 WtCom= 1.00D+00 WtEn= 0.00D+00
 Coeff-Com:  0.194D-03-0.279D-01-0.725D-02-0.175D-01 0.518D-01 0.328D+00
 Coeff-Com:  0.673D+00
 Coeff:      0.194D-03-0.279D-01-0.725D-02-0.175D-01 0.518D-01 0.328D+00
 Coeff:      0.673D+00
 Gap=     0.056 Goal=   None    Shift=    0.000
 RMSDP=5.36D-08 MaxDP=2.11D-06 DE=-3.66D-11 OVMax= 1.21D-05

 Cycle  23  Pass 1  IDiag  1:
 RMSU=  1.95D-08    CP:  1.00D+00  1.01D+00  2.63D-01  6.83D-01  1.25D+00
                    CP:  1.44D+00  1.60D+00
 E= -783.312636241677     Delta-E=       -0.000000000022 Rises=F Damp=F
 DIIS: error= 6.44D-08 at cycle   8 NSaved=   8.
 NSaved= 8 IEnMin= 8 EnMin= -783.312636241677     IErMin= 8 ErrMin= 6.44D-08
 ErrMax= 6.44D-08  0.00D+00 EMaxC= 1.00D-01 BMatC= 1.46D-12 BMatP= 5.52D-12
 IDIUse=1 WtCom= 1.00D+00 WtEn= 0.00D+00
 Coeff-Com:  0.411D-03-0.503D-01-0.994D-02-0.410D-01-0.445D-01 0.388D-01
 Coeff-Com:  0.358D+00 0.749D+00
 Coeff:      0.411D-03-0.503D-01-0.994D-02-0.410D-01-0.445D-01 0.388D-01
 Coeff:      0.358D+00 0.749D+00
 Gap=     0.056 Goal=   None    Shift=    0.000
 RMSDP=4.28D-08 MaxDP=1.73D-06 DE=-2.23D-11 OVMax= 9.69D-06

 Cycle  24  Pass 1  IDiag  1:
 RMSU=  8.16D-09    CP:  1.00D+00  1.01D+00  2.64D-01  7.13D-01  1.39D+00
                    CP:  1.73D+00  2.24D+00  1.36D+00
 E= -783.312636241670     Delta-E=        0.000000000008 Rises=F Damp=F
 DIIS: error= 4.27D-08 at cycle   9 NSaved=   9.
 NSaved= 9 IEnMin= 8 EnMin= -783.312636241677     IErMin= 9 ErrMin= 4.27D-08
 ErrMax= 4.27D-08  0.00D+00 EMaxC= 1.00D-01 BMatC= 5.55D-13 BMatP= 1.46D-12
 IDIUse=1 WtCom= 1.00D+00 WtEn= 0.00D+00
 Coeff-Com:  0.199D-03-0.223D-01-0.342D-02-0.213D-01-0.638D-01-0.138D+00
 Coeff-Com: -0.102D+00 0.510D+00 0.841D+00
 Coeff:      0.199D-03-0.223D-01-0.342D-02-0.213D-01-0.638D-01-0.138D+00
 Coeff:     -0.102D+00 0.510D+00 0.841D+00
 Gap=     0.056 Goal=   None    Shift=    0.000
 RMSDP=4.08D-08 MaxDP=1.65D-06 DE= 7.50D-12 OVMax= 9.34D-06

 Cycle  25  Pass 1  IDiag  1:
 RMSU=  3.79D-09    CP:  1.00D+00  1.01D+00  2.64D-01  7.40D-01  1.51D+00
                    CP:  2.00D+00  2.84D+00  1.93D+00  1.11D+00
 E= -783.312636241659     Delta-E=        0.000000000011 Rises=F Damp=F
 DIIS: error= 2.64D-08 at cycle  10 NSaved=  10.
 NSaved=10 IEnMin= 8 EnMin= -783.312636241677     IErMin=10 ErrMin= 2.64D-08
 ErrMax= 2.64D-08  0.00D+00 EMaxC= 1.00D-01 BMatC= 1.51D-13 BMatP= 5.55D-13
 IDIUse=1 WtCom= 1.00D+00 WtEn= 0.00D+00
 Coeff-Com:  0.147D-04-0.596D-03 0.324D-03-0.212D-02-0.275D-01-0.814D-01
 Coeff-Com: -0.140D+00 0.107D+00 0.488D+00 0.656D+00
 Coeff:      0.147D-04-0.596D-03 0.324D-03-0.212D-02-0.275D-01-0.814D-01
 Coeff:     -0.140D+00 0.107D+00 0.488D+00 0.656D+00
 Gap=     0.056 Goal=   None    Shift=    0.000
 RMSDP=1.28D-08 MaxDP=5.19D-07 DE= 1.09D-11 OVMax= 2.91D-06

 Cycle  26  Pass 1  IDiag  1:
 RMSU=  1.65D-09    CP:  1.00D+00  1.01D+00  2.64D-01  7.49D-01  1.55D+00
                    CP:  2.10D+00  3.00D+00  2.09D+00  1.29D+00  7.80D-01
 E= -783.312636241665     Delta-E=       -0.000000000006 Rises=F Damp=F
 DIIS: error= 6.67D-09 at cycle  11 NSaved=  11.
 NSaved=11 IEnMin= 8 EnMin= -783.312636241677     IErMin=11 ErrMin= 6.67D-09
 ErrMax= 6.67D-09  0.00D+00 EMaxC= 1.00D-01 BMatC= 2.24D-14 BMatP= 1.51D-13
 IDIUse=1 WtCom= 1.00D+00 WtEn= 0.00D+00
 Coeff-Com: -0.177D-04 0.264D-02 0.638D-03 0.159D-02-0.803D-02-0.311D-01
 Coeff-Com: -0.684D-01-0.746D-02 0.180D+00 0.383D+00 0.548D+00
 Coeff:     -0.177D-04 0.264D-02 0.638D-03 0.159D-02-0.803D-02-0.311D-01
 Coeff:     -0.684D-01-0.746D-02 0.180D+00 0.383D+00 0.548D+00
 Gap=     0.056 Goal=   None    Shift=    0.000
 RMSDP=2.55D-09 MaxDP=1.02D-07 DE=-5.91D-12 OVMax= 5.62D-07

 SCF Done:  E(RB3LYP) =  -783.312636242     A.U. after   26 cycles
            NFock= 26  Conv=0.26D-08     -V/T= 2.0098
 KE= 7.757340499095D+02 PE=-4.260123637657D+03 EE= 1.481715427114D+03
 Leave Link  502 at Thu Jun  3 14:45:54 2021, MaxMem=    33554432 cpu:       709.2
 (Enter /opt/app/gaussian09/e01/g09/l601.exe)
 Copying SCF densities to generalized density rwf, IOpCl= 0 IROHF=0.

 **********************************************************************

            Population analysis using the SCF density.

 **********************************************************************

 Orbital symmetries:
       Occupied  (A) (A) (A) (A) (A) (A) (A) (A) (A) (A) (A) (A)
                 (A) (A) (A) (A) (A) (A) (A) (A) (A) (A) (A) (A)
                 (A) (A) (A) (A) (A) (A) (A) (A) (A) (A) (A) (A)
                 (A) (A) (A) (A) (A) (A) (A) (A) (A) (A) (A) (A)
                 (A) (A) (A) (A) (A) (A) (A) (A) (A) (A) (A) (A)
                 (A) (A)
       Virtual   (A) (A) (A) (A) (A) (A) (A) (A) (A) (A) (A) (A)
                 (A) (A) (A) (A) (A) (A) (A) (A) (A) (A) (A) (A)
                 (A) (A) (A) (A) (A) (A) (A) (A) (A) (A) (A) (A)
                 (A) (A) (A) (A) (A) (A) (A) (A) (A) (A) (A) (A)
                 (A) (A) (A) (A) (A) (A) (A) (A) (A) (A) (A) (A)
                 (A) (A) (A) (A) (A) (A) (A) (A) (A) (A) (A) (A)
                 (A) (A) (A) (A) (A) (A) (A) (A) (A) (A) (A) (A)
                 (A) (A) (A) (A) (A) (A) (A) (A) (A) (A) (A) (A)
                 (A) (A) (A) (A) (A) (A) (A) (A) (A) (A) (A) (A)
                 (A) (A) (A) (A) (A) (A) (A) (A) (A) (A) (A) (A)
                 (A) (A) (A) (A) (A) (A) (A) (A) (A) (A) (A) (A)
                 (A) (A) (A) (A) (A) (A) (A) (A) (A) (A) (A) (A)
                 (A) (A) (A) (A) (A) (A) (A) (A) (A) (A) (A) (A)
                 (A) (A) (A) (A) (A) (A) (A) (A) (A) (A) (A) (A)
                 (A) (A) (A) (A) (A) (A) (A) (A) (A) (A) (A) (A)
                 (A) (A) (A) (A) (A) (A) (A) (A) (A) (A) (A) (A)
                 (A) (A) (A) (A) (A) (A) (A) (A) (A) (A) (A) (A)
                 (A) (A) (A) (A) (A) (A) (A) (A) (A) (A) (A) (A)
                 (A) (A) (A) (A) (A) (A) (A) (A) (A) (A) (A) (A)
                 (A) (A)
 The electronic state is 1-A.
 Alpha  occ. eigenvalues --  -19.13438 -19.12775 -14.31476 -10.27695 -10.27286
 Alpha  occ. eigenvalues --  -10.24288 -10.22339 -10.22140 -10.22137 -10.22090
 Alpha  occ. eigenvalues --  -10.21844 -10.21613 -10.21548 -10.21481 -10.21364
 Alpha  occ. eigenvalues --  -10.21187 -10.21116 -10.19706  -0.95820  -0.94311
 Alpha  occ. eigenvalues --   -0.91228  -0.87811  -0.86323  -0.81815  -0.77336
 Alpha  occ. eigenvalues --   -0.76514  -0.76267  -0.70765  -0.67650  -0.65687
 Alpha  occ. eigenvalues --   -0.64450  -0.60274  -0.57269  -0.55796  -0.54663
 Alpha  occ. eigenvalues --   -0.49653  -0.49314  -0.48618  -0.47440  -0.47302
 Alpha  occ. eigenvalues --   -0.44256  -0.43848  -0.43761  -0.43263  -0.41570
 Alpha  occ. eigenvalues --   -0.40276  -0.39991  -0.39191  -0.38555  -0.37968
 Alpha  occ. eigenvalues --   -0.36612  -0.36146  -0.35521  -0.33723  -0.33525
 Alpha  occ. eigenvalues --   -0.27104  -0.26779  -0.26548  -0.25699  -0.25186
 Alpha  occ. eigenvalues --   -0.24906  -0.19052
 Alpha virt. eigenvalues --   -0.13475  -0.06469  -0.03334  -0.01221   0.04960
 Alpha virt. eigenvalues --    0.05185   0.08096   0.09087   0.09889   0.13060
 Alpha virt. eigenvalues --    0.13395   0.13527   0.14174   0.14877   0.17289
 Alpha virt. eigenvalues --    0.17459   0.17874   0.18597   0.19796   0.20747
 Alpha virt. eigenvalues --    0.21209   0.23042   0.24415   0.25190   0.25761
 Alpha virt. eigenvalues --    0.27411   0.30201   0.31550   0.32770   0.33070
 Alpha virt. eigenvalues --    0.34811   0.36412   0.40948   0.44372   0.44932
 Alpha virt. eigenvalues --    0.47254   0.48496   0.49499   0.50202   0.50989
 Alpha virt. eigenvalues --    0.52063   0.52213   0.53706   0.54124   0.54634
 Alpha virt. eigenvalues --    0.54764   0.55494   0.56318   0.56495   0.56846
 Alpha virt. eigenvalues --    0.58537   0.59235   0.59466   0.59799   0.60700
 Alpha virt. eigenvalues --    0.61309   0.61605   0.61984   0.62198   0.63852
 Alpha virt. eigenvalues --    0.65038   0.66763   0.67125   0.70053   0.71510
 Alpha virt. eigenvalues --    0.73055   0.75377   0.78025   0.78762   0.79441
 Alpha virt. eigenvalues --    0.80721   0.81293   0.81609   0.81817   0.82302
 Alpha virt. eigenvalues --    0.84810   0.85370   0.86370   0.86753   0.87803
 Alpha virt. eigenvalues --    0.88634   0.89428   0.91402   0.92124   0.93198
 Alpha virt. eigenvalues --    0.94138   0.95067   0.95394   0.97714   0.99046
 Alpha virt. eigenvalues --    1.00442   1.01883   1.02481   1.03431   1.06420
 Alpha virt. eigenvalues --    1.06458   1.07610   1.08665   1.10848   1.12554
 Alpha virt. eigenvalues --    1.14739   1.15869   1.17491   1.19564   1.20707
 Alpha virt. eigenvalues --    1.22393   1.23218   1.23896   1.24693   1.29478
 Alpha virt. eigenvalues --    1.31756   1.32929   1.34411   1.35221   1.36594
 Alpha virt. eigenvalues --    1.37297   1.39450   1.40765   1.42557   1.43317
 Alpha virt. eigenvalues --    1.44775   1.45737   1.46614   1.47333   1.48132
 Alpha virt. eigenvalues --    1.49106   1.50889   1.54962   1.59586   1.62206
 Alpha virt. eigenvalues --    1.69263   1.70815   1.71881   1.74238   1.76113
 Alpha virt. eigenvalues --    1.77085   1.78293   1.79359   1.80126   1.81372
 Alpha virt. eigenvalues --    1.83152   1.83200   1.85563   1.86231   1.86773
 Alpha virt. eigenvalues --    1.87833   1.89646   1.89740   1.90077   1.92000
 Alpha virt. eigenvalues --    1.93573   1.96593   1.97008   1.99198   2.00917
 Alpha virt. eigenvalues --    2.02189   2.03463   2.04662   2.06196   2.09196
 Alpha virt. eigenvalues --    2.09717   2.11245   2.12835   2.13073   2.15989
 Alpha virt. eigenvalues --    2.17235   2.19110   2.20186   2.22344   2.23806
 Alpha virt. eigenvalues --    2.25978   2.27127   2.27542   2.28725   2.30253
 Alpha virt. eigenvalues --    2.32145   2.34250   2.36362   2.38740   2.39404
 Alpha virt. eigenvalues --    2.41941   2.44110   2.46216   2.47085   2.49173
 Alpha virt. eigenvalues --    2.51340   2.54228   2.57494   2.61144   2.63163
 Alpha virt. eigenvalues --    2.64156   2.65993   2.67510   2.68104   2.70082
 Alpha virt. eigenvalues --    2.70877   2.73601   2.75128   2.77341   2.80168
 Alpha virt. eigenvalues --    2.83365   2.85097   2.89180   2.93666   2.96604
 Alpha virt. eigenvalues --    3.01266   3.02890   3.12912   3.17980   3.30125
 Alpha virt. eigenvalues --    3.45481   3.50289   3.96267   3.99409   4.06134
 Alpha virt. eigenvalues --    4.06936   4.07940   4.09606   4.12217   4.14899
 Alpha virt. eigenvalues --    4.16435   4.28363   4.30752   4.33320   4.34955
 Alpha virt. eigenvalues --    4.40336   4.52075   4.57654   4.65543   4.93866
          Condensed to atoms (all electrons):
               1          2          3          4          5          6
     1  C    4.954941   0.468181  -0.017557  -0.035505  -0.018086   0.483473
     2  C    0.468181   5.112370   0.439063  -0.061055  -0.063413  -0.017561
     3  C   -0.017557   0.439063   5.220532   0.397244  -0.061360  -0.035250
     4  C   -0.035505  -0.061055   0.397244   5.177092   0.438936  -0.018871
     5  C   -0.018086  -0.063413  -0.061360   0.438936   5.112236   0.466607
     6  C    0.483473  -0.017561  -0.035250  -0.018871   0.466607   4.957293
     7  C    0.010669  -0.078990   0.110537   0.049550   0.014706  -0.000944
     8  C   -0.000879   0.014307   0.048266   0.156339  -0.079254   0.009979
     9  C    0.000118  -0.002817  -0.089104  -0.016164   0.021943  -0.000334
    10  C   -0.000436   0.019355   0.004287  -0.074893  -0.002845   0.000075
    11  C   -0.000002  -0.000356   0.018431  -0.001649   0.000009   0.000001
    12  H   -0.000000  -0.000015   0.000954  -0.000020   0.000000   0.000000
    13  C   -0.000000  -0.000003  -0.000433   0.000089   0.000001  -0.000000
    14  C    0.000000   0.000000   0.000016  -0.000295  -0.000001   0.000000
    15  C    0.000001  -0.000002  -0.002207   0.012857  -0.000074   0.000001
    16  H    0.359759  -0.034521   0.002586   0.000819   0.003610  -0.039671
    17  H   -0.043172   0.355048  -0.038554   0.004174   0.000315   0.004199
    18  H    0.004332   0.000177   0.004020  -0.042034   0.354329  -0.042673
    19  H   -0.039638   0.003658   0.000825   0.002526  -0.034401   0.359574
    20  H   -0.000000  -0.000000   0.000002  -0.000000   0.000000   0.000000
    21  H    0.000000  -0.000000  -0.000000   0.000003  -0.000000  -0.000000
    22  O    0.000002  -0.000043   0.003638  -0.097379  -0.000329   0.001043
    23  O    0.001097  -0.000514  -0.103286   0.004181  -0.000032  -0.000004
    24  N    0.000000  -0.000000  -0.000039   0.000645   0.000060   0.000000
    25  H   -0.000000   0.000000   0.000001   0.000019  -0.000002  -0.000000
    26  C   -0.000000   0.000000  -0.000000   0.000037  -0.000001  -0.000000
    27  H   -0.000000   0.000000   0.000000  -0.000002  -0.000000  -0.000000
    28  H    0.000000  -0.000000  -0.000000   0.000001   0.000000   0.000000
    29  H    0.000000   0.000000  -0.000000  -0.000000  -0.000001  -0.000000
               7          8          9         10         11         12
     1  C    0.010669  -0.000879   0.000118  -0.000436  -0.000002  -0.000000
     2  C   -0.078990   0.014307  -0.002817   0.019355  -0.000356  -0.000015
     3  C    0.110537   0.048266  -0.089104   0.004287   0.018431   0.000954
     4  C    0.049550   0.156339  -0.016164  -0.074893  -0.001649  -0.000020
     5  C    0.014706  -0.079254   0.021943  -0.002845   0.000009   0.000000
     6  C   -0.000944   0.009979  -0.000334   0.000075   0.000001   0.000000
     7  C    5.218006  -0.118908   0.074716   0.097931  -0.078404  -0.006656
     8  C   -0.118908   5.293780   0.043650   0.031592   0.015853  -0.000085
     9  C    0.074716   0.043650   5.395648   0.345067  -0.061840   0.003957
    10  C    0.097931   0.031592   0.345067   5.296183   0.434808  -0.038993
    11  C   -0.078404   0.015853  -0.061840   0.434808   5.121220   0.356308
    12  H   -0.006656  -0.000085   0.003957  -0.038993   0.356308   0.530287
    13  C    0.010840  -0.002128  -0.033143  -0.005495   0.456298  -0.042523
    14  C   -0.000473   0.015350  -0.069525  -0.051743  -0.019147   0.004222
    15  C    0.014875  -0.077551   0.416012  -0.047907  -0.063532   0.000387
    16  H   -0.000159   0.000014  -0.000000   0.000003  -0.000000  -0.000000
    17  H   -0.006872  -0.000137  -0.000003   0.000844  -0.000018  -0.000009
    18  H   -0.000066  -0.005958   0.001378  -0.000071  -0.000000  -0.000000
    19  H    0.000014  -0.000162   0.000003  -0.000001  -0.000000  -0.000000
    20  H   -0.000176   0.000013   0.001024   0.002289  -0.033231  -0.004238
    21  H    0.000012  -0.000108   0.003219   0.000687   0.003639  -0.000143
    22  O   -0.000477   0.444493  -0.085092   0.004712  -0.000003   0.000000
    23  O    0.456524  -0.000457   0.004457  -0.103122  -0.000445   0.017489
    24  N   -0.000062   0.007332  -0.070045   0.004203   0.000145   0.000004
    25  H    0.000001  -0.000195   0.005668  -0.000046   0.000002  -0.000000
    26  C    0.000004   0.000958  -0.001602  -0.000246   0.000019  -0.000000
    27  H   -0.000000  -0.000255   0.000586   0.000007  -0.000000  -0.000000
    28  H    0.000000   0.000091  -0.001484  -0.000001   0.000002   0.000000
    29  H    0.000001   0.000448   0.001606  -0.000189  -0.000011  -0.000000
              13         14         15         16         17         18
     1  C   -0.000000   0.000000   0.000001   0.359759  -0.043172   0.004332
     2  C   -0.000003   0.000000  -0.000002  -0.034521   0.355048   0.000177
     3  C   -0.000433   0.000016  -0.002207   0.002586  -0.038554   0.004020
     4  C    0.000089  -0.000295   0.012857   0.000819   0.004174  -0.042034
     5  C    0.000001  -0.000001  -0.000074   0.003610   0.000315   0.354329
     6  C   -0.000000   0.000000   0.000001  -0.039671   0.004199  -0.042673
     7  C    0.010840  -0.000473   0.014875  -0.000159  -0.006872  -0.000066
     8  C   -0.002128   0.015350  -0.077551   0.000014  -0.000137  -0.005958
     9  C   -0.033143  -0.069525   0.416012  -0.000000  -0.000003   0.001378
    10  C   -0.005495  -0.051743  -0.047907   0.000003   0.000844  -0.000071
    11  C    0.456298  -0.019147  -0.063532  -0.000000  -0.000018  -0.000000
    12  H   -0.042523   0.004222   0.000387  -0.000000  -0.000009  -0.000000
    13  C    4.995989   0.420881   0.012445  -0.000000  -0.000000   0.000000
    14  C    0.420881   5.190704   0.449719   0.000000  -0.000000  -0.000000
    15  C    0.012445   0.449719   4.886733  -0.000000   0.000000   0.000030
    16  H   -0.000000   0.000000  -0.000000   0.567826  -0.004560  -0.000141
    17  H   -0.000000  -0.000000   0.000000  -0.004560   0.531993   0.000013
    18  H    0.000000  -0.000000   0.000030  -0.000141   0.000013   0.534320
    19  H    0.000000  -0.000000  -0.000000  -0.004403  -0.000144  -0.004579
    20  H    0.353468  -0.032828   0.001992  -0.000000  -0.000000   0.000000
    21  H   -0.038665   0.357541  -0.036916   0.000000  -0.000000  -0.000000
    22  O   -0.000005   0.000454  -0.015959   0.000000   0.000000   0.018624
    23  O    0.001103   0.000001  -0.000029  -0.000004   0.017365   0.000000
    24  N    0.006308  -0.107732   0.381762   0.000000  -0.000000   0.000027
    25  H    0.000179  -0.004600  -0.040211  -0.000000   0.000000  -0.000001
    26  C    0.000005  -0.002953  -0.053847  -0.000000  -0.000000  -0.000001
    27  H    0.000011  -0.000149   0.004041  -0.000000  -0.000000  -0.000000
    28  H   -0.000382   0.006670  -0.005993   0.000000  -0.000000   0.000000
    29  H   -0.000103  -0.000536   0.000335  -0.000000   0.000000  -0.000000
              19         20         21         22         23         24
     1  C   -0.039638  -0.000000   0.000000   0.000002   0.001097   0.000000
     2  C    0.003658  -0.000000  -0.000000  -0.000043  -0.000514  -0.000000
     3  C    0.000825   0.000002  -0.000000   0.003638  -0.103286  -0.000039
     4  C    0.002526  -0.000000   0.000003  -0.097379   0.004181   0.000645
     5  C   -0.034401   0.000000  -0.000000  -0.000329  -0.000032   0.000060
     6  C    0.359574   0.000000  -0.000000   0.001043  -0.000004   0.000000
     7  C    0.000014  -0.000176   0.000012  -0.000477   0.456524  -0.000062
     8  C   -0.000162   0.000013  -0.000108   0.444493  -0.000457   0.007332
     9  C    0.000003   0.001024   0.003219  -0.085092   0.004457  -0.070045
    10  C   -0.000001   0.002289   0.000687   0.004712  -0.103122   0.004203
    11  C   -0.000000  -0.033231   0.003639  -0.000003  -0.000445   0.000145
    12  H   -0.000000  -0.004238  -0.000143   0.000000   0.017489   0.000004
    13  C    0.000000   0.353468  -0.038665  -0.000005   0.001103   0.006308
    14  C   -0.000000  -0.032828   0.357541   0.000454   0.000001  -0.107732
    15  C   -0.000000   0.001992  -0.036916  -0.015959  -0.000029   0.381762
    16  H   -0.004403  -0.000000   0.000000   0.000000  -0.000004   0.000000
    17  H   -0.000144  -0.000000  -0.000000   0.000000   0.017365  -0.000000
    18  H   -0.004579   0.000000  -0.000000   0.018624   0.000000   0.000027
    19  H    0.567499   0.000000  -0.000000  -0.000004   0.000000   0.000000
    20  H    0.000000   0.566214  -0.004033  -0.000000  -0.000003  -0.000133
    21  H   -0.000000  -0.004033   0.568350   0.000004   0.000000  -0.007136
    22  O   -0.000004  -0.000000   0.000004   8.273478   0.000000  -0.061678
    23  O    0.000000  -0.000003   0.000000   0.000000   8.259476   0.000000
    24  N    0.000000  -0.000133  -0.007136  -0.061678   0.000000   6.904668
    25  H   -0.000000  -0.000003   0.001613   0.002892  -0.000000   0.307489
    26  C    0.000000   0.000001   0.001785   0.003341  -0.000000   0.301624
    27  H   -0.000000  -0.000000  -0.000114   0.000535   0.000000  -0.041348
    28  H    0.000000   0.000015   0.002753  -0.000059   0.000000  -0.049520
    29  H   -0.000000  -0.000001   0.000389   0.000134  -0.000000  -0.038400
              25         26         27         28         29
     1  C   -0.000000  -0.000000  -0.000000   0.000000   0.000000
     2  C    0.000000   0.000000   0.000000  -0.000000   0.000000
     3  C    0.000001  -0.000000   0.000000  -0.000000  -0.000000
     4  C    0.000019   0.000037  -0.000002   0.000001  -0.000000
     5  C   -0.000002  -0.000001  -0.000000   0.000000  -0.000001
     6  C   -0.000000  -0.000000  -0.000000   0.000000  -0.000000
     7  C    0.000001   0.000004  -0.000000   0.000000   0.000001
     8  C   -0.000195   0.000958  -0.000255   0.000091   0.000448
     9  C    0.005668  -0.001602   0.000586  -0.001484   0.001606
    10  C   -0.000046  -0.000246   0.000007  -0.000001  -0.000189
    11  C    0.000002   0.000019  -0.000000   0.000002  -0.000011
    12  H   -0.000000  -0.000000  -0.000000   0.000000  -0.000000
    13  C    0.000179   0.000005   0.000011  -0.000382  -0.000103
    14  C   -0.004600  -0.002953  -0.000149   0.006670  -0.000536
    15  C   -0.040211  -0.053847   0.004041  -0.005993   0.000335
    16  H   -0.000000  -0.000000  -0.000000   0.000000  -0.000000
    17  H    0.000000  -0.000000  -0.000000  -0.000000   0.000000
    18  H   -0.000001  -0.000001  -0.000000   0.000000  -0.000000
    19  H   -0.000000   0.000000  -0.000000   0.000000  -0.000000
    20  H   -0.000003   0.000001  -0.000000   0.000015  -0.000001
    21  H    0.001613   0.001785  -0.000114   0.002753   0.000389
    22  O    0.002892   0.003341   0.000535  -0.000059   0.000134
    23  O   -0.000000  -0.000000   0.000000   0.000000  -0.000000
    24  N    0.307489   0.301624  -0.041348  -0.049520  -0.038400
    25  H    0.461559  -0.039069   0.001673  -0.009976   0.006313
    26  C   -0.039069   4.962254   0.386026   0.368919   0.384441
    27  H    0.001673   0.386026   0.549711  -0.044469  -0.022973
    28  H   -0.009976   0.368919  -0.044469   0.645674  -0.038965
    29  H    0.006313   0.384441  -0.022973  -0.038965   0.542131
 Mulliken charges:
               1
     1  C   -0.127296
     2  C   -0.152868
     3  C    0.097389
     4  C    0.103352
     5  C   -0.152951
     6  C   -0.126938
     7  C    0.233802
     8  C    0.203613
     9  C    0.112102
    10  C    0.083944
    11  C   -0.148097
    12  H    0.179077
    13  C   -0.134736
    14  C   -0.155577
    15  C    0.163039
    16  H    0.148843
    17  H    0.179518
    18  H    0.178274
    19  H    0.149235
    20  H    0.149627
    21  H    0.147120
    22  O   -0.492322
    23  O   -0.553798
    24  N   -0.538173
    25  H    0.306695
    26  C   -0.311697
    27  H    0.166719
    28  H    0.126723
    29  H    0.165379
 Sum of Mulliken charges =  -0.00000
 Mulliken charges with hydrogens summed into heavy atoms:
               1
     1  C    0.021547
     2  C    0.026650
     3  C    0.097389
     4  C    0.103352
     5  C    0.025324
     6  C    0.022297
     7  C    0.233802
     8  C    0.203613
     9  C    0.112102
    10  C    0.083944
    11  C    0.030980
    13  C    0.014891
    14  C   -0.008457
    15  C    0.163039
    22  O   -0.492322
    23  O   -0.553798
    24  N   -0.231479
    26  C    0.147124
 Electronic spatial extent (au):  <R**2>=           4319.0534
 Charge=             -0.0000 electrons
 Dipole moment (field-independent basis, Debye):
    X=              1.4446    Y=             -0.3497    Z=             -0.1115  Tot=              1.4905
 Quadrupole moment (field-independent basis, Debye-Ang):
   XX=            -74.0512   YY=           -112.1079   ZZ=           -102.2935
   XY=             10.9535   XZ=             -1.3875   YZ=             -1.1909
 Traceless Quadrupole moment (field-independent basis, Debye-Ang):
   XX=             22.0996   YY=            -15.9571   ZZ=             -6.1426
   XY=             10.9535   XZ=             -1.3875   YZ=             -1.1909
 Octapole moment (field-independent basis, Debye-Ang**2):
  XXX=             -2.3016  YYY=            -16.0317  ZZZ=             -1.6258  XYY=             19.8586
  XXY=            -20.6330  XXZ=             -5.9713  XZZ=             10.3503  YZZ=             -5.4613
  YYZ=              0.1641  XYZ=              0.7252
 Hexadecapole moment (field-independent basis, Debye-Ang**3):
 XXXX=          -3294.0767 YYYY=          -1813.0993 ZZZZ=           -154.0319 XXXY=             13.7755
 XXXZ=            -52.5158 YYYX=            101.1399 YYYZ=             -8.2092 ZZZX=             -5.3294
 ZZZY=              8.3147 XXYY=           -846.1096 XXZZ=           -693.8882 YYZZ=           -321.9902
 XXYZ=              9.7446 YYXZ=              4.2774 ZZXY=            -31.9232
 N-N= 1.219361524392D+03 E-N=-4.260123637335D+03  KE= 7.757340499095D+02
 No NMR shielding tensors so no spin-rotation constants.
 Leave Link  601 at Thu Jun  3 14:45:56 2021, MaxMem=    33554432 cpu:         0.3
 (Enter /opt/app/gaussian09/e01/g09/l701.exe)
 Compute integral first derivatives.
[...]
 Alpha virt. eigenvalues --    0.14451   0.15022   0.15533   0.16313   0.16903
 Alpha virt. eigenvalues --    0.18172   0.18997   0.19281   0.20294   0.21195
 Alpha virt. eigenvalues --    0.22701   0.24969   0.25998   0.26463   0.28176
 Alpha virt. eigenvalues --    0.28400   0.30006   0.32928   0.33499   0.34741
 Alpha virt. eigenvalues --    0.35467   0.38493   0.39635   0.42875   0.43532
 Alpha virt. eigenvalues --    0.47877   0.49620   0.50052   0.50739   0.51667
 Alpha virt. eigenvalues --    0.52677   0.53482   0.54418   0.54747   0.55103
 Alpha virt. eigenvalues --    0.55663   0.56464   0.56959   0.57235   0.59187
 Alpha virt. eigenvalues --    0.59409   0.59923   0.60246   0.60384   0.61058
 Alpha virt. eigenvalues --    0.61983   0.62774   0.63304   0.63494   0.64270
 Alpha virt. eigenvalues --    0.66063   0.66851   0.68812   0.70989   0.72375
 Alpha virt. eigenvalues --    0.74151   0.74249   0.76829   0.77496   0.79709
 Alpha virt. eigenvalues --    0.80230   0.81715   0.82332   0.82552   0.82835
 Alpha virt. eigenvalues --    0.83171   0.84701   0.85468   0.86236   0.87696
 Alpha virt. eigenvalues --    0.88336   0.89257   0.89674   0.91104   0.92571
 Alpha virt. eigenvalues --    0.94365   0.95169   0.96049   0.98539   1.00125
 Alpha virt. eigenvalues --    1.00852   1.02093   1.02513   1.03638   1.05690
 Alpha virt. eigenvalues --    1.06928   1.07552   1.10165   1.11737   1.12357
 Alpha virt. eigenvalues --    1.13379   1.16330   1.16789   1.17825   1.22186
 Alpha virt. eigenvalues --    1.22737   1.24971   1.25602   1.27542   1.28099
 Alpha virt. eigenvalues --    1.30539   1.32270   1.35159   1.35975   1.36437
 Alpha virt. eigenvalues --    1.37943   1.39346   1.41513   1.42504   1.43864
 Alpha virt. eigenvalues --    1.45127   1.46512   1.47479   1.47694   1.48562
 Alpha virt. eigenvalues --    1.49205   1.50712   1.57047   1.58861   1.61532
 Alpha virt. eigenvalues --    1.64584   1.66657   1.70023   1.72469   1.74911
 Alpha virt. eigenvalues --    1.75459   1.77803   1.78494   1.79418   1.79847
 Alpha virt. eigenvalues --    1.81882   1.83262   1.84268   1.85867   1.87741
 Alpha virt. eigenvalues --    1.88461   1.90552   1.91631   1.92250   1.92668
 Alpha virt. eigenvalues --    1.93474   1.96430   1.98451   1.99178   2.02015
 Alpha virt. eigenvalues --    2.03041   2.03558   2.04748   2.07082   2.09273
 Alpha virt. eigenvalues --    2.10985   2.13295   2.13813   2.14773   2.16659
 Alpha virt. eigenvalues --    2.18245   2.20252   2.21400   2.24440   2.25110
 Alpha virt. eigenvalues --    2.26516   2.27458   2.29157   2.29801   2.30539
 Alpha virt. eigenvalues --    2.32456   2.33162   2.37714   2.41611   2.42568
 Alpha virt. eigenvalues --    2.43320   2.46400   2.50274   2.54279   2.55576
 Alpha virt. eigenvalues --    2.55912   2.58092   2.59937   2.63546   2.64313
 Alpha virt. eigenvalues --    2.65780   2.67703   2.68108   2.70058   2.72069
 Alpha virt. eigenvalues --    2.73428   2.75296   2.76954   2.79689   2.81826
 Alpha virt. eigenvalues --    2.85054   2.87628   2.91920   2.97342   3.00817
 Alpha virt. eigenvalues --    3.01915   3.04477   3.08312   3.19161   3.31122
 Alpha virt. eigenvalues --    3.41840   3.49221   3.94161   3.96757   4.01481
 Alpha virt. eigenvalues --    4.08128   4.08220   4.12357   4.13277   4.14795
 Alpha virt. eigenvalues --    4.19323   4.28075   4.33505   4.34696   4.39197
 Alpha virt. eigenvalues --    4.41974   4.60602   4.64733   4.68750   4.89137
          Condensed to atoms (all electrons):
               1          2          3          4          5          6
     1  C    4.919561   0.480483  -0.018259  -0.036013  -0.020870   0.516016
     2  C    0.480483   5.087266   0.454894  -0.060860  -0.058700  -0.021940
     3  C   -0.018259   0.454894   5.161004   0.451942  -0.052370  -0.036562
     4  C   -0.036013  -0.060860   0.451942   5.138854   0.466496  -0.020743
     5  C   -0.020870  -0.058700  -0.052370   0.466496   5.073417   0.480118
     6  C    0.516016  -0.021940  -0.036562  -0.020743   0.480118   4.919559
     7  C    0.007000  -0.057123   0.207005   0.006293   0.009453  -0.000359
     8  C   -0.000424   0.009278   0.002958   0.230183  -0.056338   0.006879
     9  C    0.000035  -0.001470  -0.039942  -0.072392   0.013794  -0.000217
    10  C   -0.000232   0.014777  -0.058493  -0.036412  -0.001338   0.000030
    11  C   -0.000001  -0.000387   0.014950  -0.000757   0.000013   0.000001
    12  H   -0.000000  -0.000012   0.001034  -0.000031   0.000000   0.000000
    13  C   -0.000000  -0.000001  -0.000313   0.000035   0.000001  -0.000000
    14  C    0.000000   0.000001   0.000009  -0.000142  -0.000001  -0.000000
    15  C    0.000000   0.000007  -0.000737   0.007521  -0.000189  -0.000000
    16  H    0.361083  -0.037670   0.002775   0.000950   0.003849  -0.041214
    17  H   -0.043330   0.354564  -0.040366   0.005090   0.000393   0.004153
    18  H    0.004166   0.000428   0.004755  -0.040336   0.354470  -0.043649
    19  H   -0.041623   0.003945   0.000909   0.003010  -0.038136   0.361010
    20  H   -0.000000  -0.000000   0.000003  -0.000000   0.000000   0.000000
    21  H    0.000000   0.000000  -0.000000   0.000002  -0.000000   0.000000
    22  O   -0.000007  -0.000067   0.003497  -0.099875   0.002254   0.000975
    23  O    0.000888   0.003001  -0.106759   0.004252  -0.000076  -0.000005
    24  N   -0.000000  -0.000000   0.000010  -0.000016   0.000004  -0.000000
    25  H    0.000000   0.000000  -0.000000   0.000011  -0.000000  -0.000000
    26  C   -0.000000   0.000000  -0.000002  -0.000448  -0.000009   0.000000
    27  H    0.000000   0.000000  -0.000000   0.000010  -0.000001  -0.000000
    28  H    0.000000  -0.000000  -0.000016  -0.000024   0.000001   0.000000
    29  H   -0.000000   0.000000  -0.000003   0.000039   0.000022   0.000000
               7          8          9         10         11         12
     1  C    0.007000  -0.000424   0.000035  -0.000232  -0.000001  -0.000000
     2  C   -0.057123   0.009278  -0.001470   0.014777  -0.000387  -0.000012
     3  C    0.207005   0.002958  -0.039942  -0.058493   0.014950   0.001034
     4  C    0.006293   0.230183  -0.072392  -0.036412  -0.000757  -0.000031
     5  C    0.009453  -0.056338   0.013794  -0.001338   0.000013   0.000000
     6  C   -0.000359   0.006879  -0.000217   0.000030   0.000001   0.000000
     7  C    4.790640  -0.053859   0.015297   0.202133  -0.040926  -0.010377
     8  C   -0.053859   4.816250   0.208435   0.006161   0.008582  -0.000074
     9  C    0.015297   0.208435   5.312444   0.406731  -0.076363   0.005006
    10  C    0.202133   0.006161   0.406731   5.177958   0.481316  -0.041785
    11  C   -0.040926   0.008582  -0.076363   0.481316   5.091335   0.356891
    12  H   -0.010377  -0.000074   0.005006  -0.041785   0.356891   0.549798
    13  C    0.006813  -0.001123  -0.038864  -0.008943   0.456056  -0.043586
    14  C    0.000256   0.006573  -0.043207  -0.041034  -0.034871   0.004536
    15  C    0.006925  -0.055039   0.433296  -0.026914  -0.046994   0.000358
    16  H   -0.000140   0.000011  -0.000000   0.000002  -0.000000  -0.000000
    17  H   -0.009081  -0.000111  -0.000007   0.000778  -0.000013  -0.000010
    18  H   -0.000124  -0.008559   0.000955  -0.000023  -0.000000  -0.000000
    19  H    0.000010  -0.000130   0.000003  -0.000000  -0.000000  -0.000000
    20  H   -0.000143   0.000011   0.001006   0.002885  -0.037139  -0.003884
    21  H    0.000003  -0.000079   0.005238   0.000396   0.004471  -0.000152
    22  O   -0.000047   0.550836  -0.099898   0.002611  -0.000021   0.000000
    23  O    0.577525  -0.000143   0.003989  -0.105776   0.000146   0.018817
    24  N   -0.000087  -0.011349  -0.049933   0.005459   0.000598   0.000004
    25  H    0.000002   0.000075   0.005163  -0.000093  -0.000009  -0.000001
    26  C    0.000002   0.001926  -0.010019  -0.000149   0.000013   0.000000
    27  H   -0.000000   0.000270  -0.000111   0.000002   0.000000   0.000000
    28  H    0.000011   0.002711   0.006739  -0.000184  -0.000041  -0.000000
    29  H   -0.000002  -0.003775   0.001171   0.000007   0.000002   0.000000
              13         14         15         16         17         18
     1  C   -0.000000   0.000000   0.000000   0.361083  -0.043330   0.004166
     2  C   -0.000001   0.000001   0.000007  -0.037670   0.354564   0.000428
     3  C   -0.000313   0.000009  -0.000737   0.002775  -0.040366   0.004755
     4  C    0.000035  -0.000142   0.007521   0.000950   0.005090  -0.040336
     5  C    0.000001  -0.000001  -0.000189   0.003849   0.000393   0.354470
     6  C   -0.000000  -0.000000  -0.000000  -0.041214   0.004153  -0.043649
     7  C    0.006813   0.000256   0.006925  -0.000140  -0.009081  -0.000124
     8  C   -0.001123   0.006573  -0.055039   0.000011  -0.000111  -0.008559
     9  C   -0.038864  -0.043207   0.433296  -0.000000  -0.000007   0.000955
    10  C   -0.008943  -0.041034  -0.026914   0.000002   0.000778  -0.000023
    11  C    0.456056  -0.034871  -0.046994  -0.000000  -0.000013  -0.000000
    12  H   -0.043586   0.004536   0.000358  -0.000000  -0.000010  -0.000000
    13  C    4.902335   0.528828   0.000184  -0.000000  -0.000000   0.000000
    14  C    0.528828   5.049584   0.481509   0.000000   0.000000   0.000000
    15  C    0.000184   0.481509   4.663277  -0.000000   0.000000   0.000007
    16  H   -0.000000   0.000000  -0.000000   0.578073  -0.004194  -0.000152
    17  H   -0.000000   0.000000   0.000000  -0.004194   0.550739   0.000018
    18  H    0.000000   0.000000   0.000007  -0.000152   0.000018   0.552715
    19  H    0.000000  -0.000000  -0.000000  -0.004909  -0.000153  -0.004394
    20  H    0.357375  -0.038067   0.003345  -0.000000  -0.000000   0.000000
    21  H   -0.035937   0.347311  -0.045820   0.000000  -0.000000  -0.000000
    22  O   -0.000016   0.000258   0.000071   0.000000   0.000000   0.017094
    23  O    0.001058  -0.000008  -0.000048   0.000001   0.016476   0.000000
    24  N    0.005562  -0.078642   0.325802  -0.000000  -0.000000  -0.000001
    25  H    0.000270  -0.008215  -0.033939   0.000000   0.000000  -0.000000
    26  C   -0.000162   0.004597  -0.025872  -0.000000  -0.000000  -0.000001
    27  H    0.000000  -0.000174   0.003806   0.000000  -0.000000  -0.000000
    28  H    0.000004   0.000713  -0.001172   0.000000   0.000000   0.000003
    29  H    0.000005  -0.000134  -0.002129   0.000000  -0.000000   0.000016
              19         20         21         22         23         24
     1  C   -0.041623  -0.000000   0.000000  -0.000007   0.000888  -0.000000
     2  C    0.003945  -0.000000   0.000000  -0.000067   0.003001  -0.000000
     3  C    0.000909   0.000003  -0.000000   0.003497  -0.106759   0.000010
     4  C    0.003010  -0.000000   0.000002  -0.099875   0.004252  -0.000016
     5  C   -0.038136   0.000000  -0.000000   0.002254  -0.000076   0.000004
     6  C    0.361010   0.000000   0.000000   0.000975  -0.000005  -0.000000
     7  C    0.000010  -0.000143   0.000003  -0.000047   0.577525  -0.000087
     8  C   -0.000130   0.000011  -0.000079   0.550836  -0.000143  -0.011349
     9  C    0.000003   0.001006   0.005238  -0.099898   0.003989  -0.049933
    10  C   -0.000000   0.002885   0.000396   0.002611  -0.105776   0.005459
    11  C   -0.000000  -0.037139   0.004471  -0.000021   0.000146   0.000598
    12  H   -0.000000  -0.003884  -0.000152   0.000000   0.018817   0.000004
    13  C    0.000000   0.357375  -0.035937  -0.000016   0.001058   0.005562
    14  C   -0.000000  -0.038067   0.347311   0.000258  -0.000008  -0.078642
    15  C   -0.000000   0.003345  -0.045820   0.000071  -0.000048   0.325802
    16  H   -0.004909  -0.000000   0.000000   0.000000   0.000001  -0.000000
    17  H   -0.000153  -0.000000  -0.000000   0.000000   0.016476  -0.000000
    18  H   -0.004394   0.000000  -0.000000   0.017094   0.000000  -0.000001
    19  H    0.579348   0.000000  -0.000000   0.000001   0.000000   0.000000
    20  H    0.000000   0.578577  -0.005777  -0.000000   0.000002  -0.000124
    21  H   -0.000000  -0.005777   0.601486   0.000006   0.000000  -0.009069
    22  O    0.000001  -0.000000   0.000006   8.123097   0.000000  -0.003137
    23  O    0.000000   0.000002   0.000000   0.000000   8.070608   0.000000
    24  N    0.000000  -0.000124  -0.009069  -0.003137   0.000000   6.939911
    25  H   -0.000000  -0.000025   0.010363   0.000212  -0.000000   0.319451
    26  C   -0.000000   0.000002   0.000102  -0.010045   0.000000   0.299843
    27  H   -0.000000  -0.000000  -0.000025   0.000929   0.000000  -0.032272
    28  H    0.000000   0.000000  -0.000001  -0.003214   0.000000  -0.047483
    29  H   -0.000000  -0.000000   0.000004   0.015231  -0.000000  -0.042153
              25         26         27         28         29
     1  C    0.000000  -0.000000   0.000000   0.000000  -0.000000
     2  C    0.000000   0.000000   0.000000  -0.000000   0.000000
     3  C   -0.000000  -0.000002  -0.000000  -0.000016  -0.000003
     4  C    0.000011  -0.000448   0.000010  -0.000024   0.000039
     5  C   -0.000000  -0.000009  -0.000001   0.000001   0.000022
     6  C   -0.000000   0.000000  -0.000000   0.000000   0.000000
     7  C    0.000002   0.000002  -0.000000   0.000011  -0.000002
     8  C    0.000075   0.001926   0.000270   0.002711  -0.003775
     9  C    0.005163  -0.010019  -0.000111   0.006739   0.001171
    10  C   -0.000093  -0.000149   0.000002  -0.000184   0.000007
    11  C   -0.000009   0.000013   0.000000  -0.000041   0.000002
    12  H   -0.000001   0.000000   0.000000  -0.000000   0.000000
    13  C    0.000270  -0.000162   0.000000   0.000004   0.000005
    14  C   -0.008215   0.004597  -0.000174   0.000713  -0.000134
    15  C   -0.033939  -0.025872   0.003806  -0.001172  -0.002129
    16  H    0.000000  -0.000000   0.000000   0.000000   0.000000
    17  H    0.000000  -0.000000  -0.000000   0.000000  -0.000000
    18  H   -0.000000  -0.000001  -0.000000   0.000003   0.000016
    19  H   -0.000000  -0.000000  -0.000000   0.000000  -0.000000
    20  H   -0.000025   0.000002  -0.000000   0.000000  -0.000000
    21  H    0.010363   0.000102  -0.000025  -0.000001   0.000004
    22  O    0.000212  -0.010045   0.000929  -0.003214   0.015231
    23  O   -0.000000   0.000000   0.000000   0.000000  -0.000000
    24  N    0.319451   0.299843  -0.032272  -0.047483  -0.042153
    25  H    0.424756  -0.040724  -0.006959   0.003206   0.003276
    26  C   -0.040724   4.970272   0.363880   0.378585   0.377659
    27  H   -0.006959   0.363880   0.585409  -0.027640  -0.029957
    28  H    0.003206   0.378585  -0.027640   0.573966  -0.040886
    29  H    0.003276   0.377659  -0.029957  -0.040886   0.513932
 Mulliken charges:
               1
     1  C   -0.128475
     2  C   -0.170412
     3  C    0.048080
     4  C    0.053362
     5  C   -0.176258
     6  C   -0.124053
     7  C    0.342899
     8  C    0.339865
     9  C    0.013122
    10  C    0.020132
    11  C   -0.176853
    12  H    0.163468
    13  C   -0.129580
    14  C   -0.179679
    15  C    0.312745
    16  H    0.141535
    17  H    0.165055
    18  H    0.162612
    19  H    0.141110
    20  H    0.141955
    21  H    0.127479
    22  O   -0.500745
    23  O   -0.483949
    24  N   -0.622377
    25  H    0.323182
    26  C   -0.309452
    27  H    0.142832
    28  H    0.154722
    29  H    0.207677
 Sum of Mulliken charges =  -0.00000
 Mulliken charges with hydrogens summed into heavy atoms:
               1
     1  C    0.013060
     2  C   -0.005357
     3  C    0.048080
     4  C    0.053362
     5  C   -0.013646
     6  C    0.017057
     7  C    0.342899
     8  C    0.339865
     9  C    0.013122
    10  C    0.020132
    11  C   -0.013385
    13  C    0.012375
    14  C   -0.052200
    15  C    0.312745
    22  O   -0.500745
    23  O   -0.483949
    24  N   -0.299195
    26  C    0.195780
 Electronic spatial extent (au):  <R**2>=           4218.8946
 Charge=             -0.0000 electrons
 Dipole moment (field-independent basis, Debye):
    X=              2.0502    Y=             -1.6060    Z=              1.3084  Tot=              2.9145
 Quadrupole moment (field-independent basis, Debye-Ang):
   XX=            -74.8230   YY=           -105.8675   ZZ=           -105.0872
   XY=              3.5277   XZ=              1.7424   YZ=             -5.0015
 Traceless Quadrupole moment (field-independent basis, Debye-Ang):
   XX=             20.4362   YY=            -10.6082   ZZ=             -9.8280
   XY=              3.5277   XZ=              1.7424   YZ=             -5.0015
 Octapole moment (field-independent basis, Debye-Ang**2):
  XXX=             25.7202  YYY=            -26.2118  ZZZ=              0.7078  XYY=             23.0997
  XXY=            -22.0110  XXZ=              5.7214  XZZ=              2.4241  YZZ=             -0.9086
  YYZ=              6.0293  XYZ=             -9.0263
 Hexadecapole moment (field-independent basis, Debye-Ang**3):
 XXXX=          -3040.1088 YYYY=          -1831.6366 ZZZZ=           -179.9331 XXXY=            -51.9034
 XXXZ=            -15.4893 YYYX=             45.7508 YYYZ=            -27.5385 ZZZX=              4.3126
 ZZZY=              5.4104 XXYY=           -805.7070 XXZZ=           -684.5059 YYZZ=           -341.7376
 XXYZ=            -10.4924 YYXZ=             19.3582 ZZXY=            -21.6051
 N-N= 1.227094810187D+03 E-N=-4.275849002757D+03  KE= 7.760748650814D+02
 No NMR shielding tensors so no spin-rotation constants.
 Leave Link  601 at Thu Jun  3 18:47:33 2021, MaxMem=    33554432 cpu:         0.3
 (Enter /opt/app/gaussian09/e01/g09/l9999.exe)
 1\1\GINC-NB-0138\FOpt\RB3LYP\6-31G(d)\C15H11N1O2\ROOT\03-Jun-2021\0\\#
 p opt b3lyp/6-31g(d) geom=connectivity int=ultrafine\\Title Card Requi
 red\\0,1\C,-3.2759245943,-3.0312381391,-0.3481015576\C,-1.8873278282,-
 3.0764509377,-0.2741787744\C,-1.1553605324,-1.8926986558,-0.1187426075
 \C,-1.8205738097,-0.6590466002,-0.0310917514\C,-3.2189619757,-0.623951
 3791,-0.0909833687\C,-3.9417400342,-1.8025777266,-0.2548755664\C,0.324
 2240892,-1.9526771223,-0.0129145111\C,-1.0741317465,0.627877521,0.1400
 646669\C,0.4006210081,0.5981165979,0.0191424088\C,1.0685150712,-0.6586
 331111,0.099952537\C,2.4428950817,-0.7429462591,0.2864740638\H,2.90024
 96426,-1.7236823561,0.3458441298\C,3.1926392468,0.4308263175,0.4075414
 652\C,2.5826981264,1.6624056989,0.2637119209\C,1.1924963529,1.78715636
 51,0.0114405934\H,-3.8436128551,-3.9493938034,-0.472088574\H,-1.344433
 2222,-4.0143428158,-0.3290238878\H,-3.7145290112,0.3372741595,-0.00620
 56532\H,-5.0266082453,-1.7682380519,-0.3083868084\H,4.2639008879,0.379
 7153978,0.5824695053\H,3.1833264954,2.569387215,0.3028750286\O,-1.7006
 748759,1.6489890451,0.4251317029\O,0.9179753292,-3.0268417023,-0.02353
 11178\N,0.7180406357,3.0550491364,-0.2341740135\H,1.4429990813,3.75591
 46876,-0.167150768\C,-0.3403997968,3.4051764483,-1.1748855825\H,-0.077
 1828783,4.3593157718,-1.641808267\H,-0.425493046,2.6479545283,-1.96433
 37517\H,-1.3103214568,3.4895999104,-0.681985652\\Version=ES64L-G09RevE
 .01\State=1-A\HF=-783.4311102\RMSD=3.699e-09\RMSF=6.173e-06\Dipole=0.1
 715662,0.9835424,-0.5639368\Quadrupole=5.8895318,0.6529642,-6.542496,1
 1.9668311,2.1694332,-2.9559166\PG=C01 [X(C15H11N1O2)]\\@


 SATCHEL PAIGE'S GUIDE TO LONGEVITY

    1.  AVOID FRIED MEATS, WHICH ANGRY UP THE BLOOD.

    2.  IF YOUR STOMACH DISPUTES YOU, LIE DOWN AND PACIFY IT WITH COOL
        THOUGHTS.

    3.  KEEP THE JUICES FLOWING BY JANGLING AROUND GENTLY AS YOU MOVE.

    4.  GO VERY LIGHT ON THE VICES, SUCH AS CARRYING ON IN SOCIETY.
        THE SOCIAL RUMBLE AIN'T RESTFUL.

    5.  AVOID RUNNING AT ALL TIMES.

    6.  DON'T LOOK BACK.  SOMETHING MAY BE GAINING ON YOU.
 Job cpu time:       0 days  4 hours 13 minutes 14.0 seconds.
 File lengths (MBytes):  RWF=     55 Int=      0 D2E=      0 Chk=      7 Scr=      1
 Normal termination of Gaussian 09 at Thu Jun  3 18:47:34 2021.
