Title Card Required                                                     
FOpt      RB3LYP                                                      6-31G(d)            
Number of atoms                            I               29
Info1-9                                    I   N=           9
          66          66           0           0           0         110
           2          18        -502
Charge                                     I                0
Multiplicity                               I                1
Number of electrons                        I              124
Number of alpha electrons                  I               62
Number of beta electrons                   I               62
Number of basis functions                  I              292
Number of independent functions            I              292
Number of point charges in /Mol/           I                0
Number of translation vectors              I                0
Atomic numbers                             I   N=          29
           6           6           6           6           6           6
           6           6           6           6           6           1
           6           6           6           1           1           1
           1           1           1           8           8           7
           1           6           1           1           1
Nuclear charges                            R   N=          29
  6.00000000E+00  6.00000000E+00  6.00000000E+00  6.00000000E+00  6.00000000E+00
  6.00000000E+00  6.00000000E+00  6.00000000E+00  6.00000000E+00  6.00000000E+00
  6.00000000E+00  1.00000000E+00  6.00000000E+00  6.00000000E+00  6.00000000E+00
  1.00000000E+00  1.00000000E+00  1.00000000E+00  1.00000000E+00  1.00000000E+00
  1.00000000E+00  8.00000000E+00  8.00000000E+00  7.00000000E+00  1.00000000E+00
  6.00000000E+00  1.00000000E+00  1.00000000E+00  1.00000000E+00
Current cartesian coordinates              R   N=          87
 -7.81811777E+00 -1.77783382E-01  3.42362565E-01 -6.02517011E+00  1.74230611E+00
  4.47909075E-01 -3.45847696E+00  1.17455247E+00  1.42399887E-01 -2.68966136E+00
 -1.32966058E+00 -2.82213456E-01 -4.50867333E+00 -3.24644313E+00 -4.14605478E-01
 -7.05657698E+00 -2.67502330E+00 -9.22368895E-02 -1.56282185E+00  3.24168347E+00
  2.05427999E-01  3.50852778E-02 -2.01197935E+00 -6.26921869E-01  1.95613053E+00
 -3.79201733E-02 -1.42413068E-01  1.16637251E+00  2.53509216E+00 -3.10129508E-02
  2.89229952E+00  4.51132318E+00 -1.34782879E-01  2.19074975E+00  6.43364539E+00
 -5.19072403E-02  5.46801177E+00  3.97339047E+00 -3.71504506E-01  6.29890050E+00
  1.49787309E+00 -3.51598485E-01  4.60353472E+00 -5.66572592E-01 -1.31831374E-01
 -9.80899164E+00  2.61946131E-01  5.85767789E-01 -6.55968966E+00  3.69794243E+00
  7.54974323E-01 -3.87868959E+00 -5.16404860E+00 -7.72493000E-01 -8.45850794E+00
 -4.17295372E+00 -1.82549045E-01  6.83397332E+00  5.50042720E+00 -5.09598553E-01
  8.31548136E+00  1.09934508E+00 -4.28701529E-01  5.78333106E-01 -4.14204049E+00
 -1.39059670E+00 -2.21036721E+00  5.45494372E+00  4.54248869E-01  5.65974693E+00
 -2.93119522E+00  9.82868575E-02  7.56707066E+00 -2.88508328E+00  1.45666659E-02
  4.68213686E+00 -4.99542822E+00  1.64160035E+00  6.29290276E+00 -6.00869752E+00
  2.45136446E+00  3.52462127E+00 -4.26478946E+00  3.19895917E+00  3.52128402E+00
 -6.29505436E+00  5.38918015E-01
Force Field                                I                0
Int Atom Types                             I   N=          29
           0           0           0           0           0           0
           0           0           0           0           0           0
           0           0           0           0           0           0
           0           0           0           0           0           0
           0           0           0           0           0
MM charges                                 R   N=          29
  0.00000000E+00  0.00000000E+00  0.00000000E+00  0.00000000E+00  0.00000000E+00
  0.00000000E+00  0.00000000E+00  0.00000000E+00  0.00000000E+00  0.00000000E+00
  0.00000000E+00  0.00000000E+00  0.00000000E+00  0.00000000E+00  0.00000000E+00
  0.00000000E+00  0.00000000E+00  0.00000000E+00  0.00000000E+00  0.00000000E+00
  0.00000000E+00  0.00000000E+00  0.00000000E+00  0.00000000E+00  0.00000000E+00
  0.00000000E+00  0.00000000E+00  0.00000000E+00  0.00000000E+00
Integer atomic weights                     I   N=          29
          12          12          12          12          12          12
          12          12          12          12          12           1
          12          12          12           1           1           1
           1           1           1          16          16          14
           1          12           1           1           1
Real atomic weights                        R   N=          29
  1.20000000E+01  1.20000000E+01  1.20000000E+01  1.20000000E+01  1.20000000E+01
  1.20000000E+01  1.20000000E+01  1.20000000E+01  1.20000000E+01  1.20000000E+01
  1.20000000E+01  1.00782504E+00  1.20000000E+01  1.20000000E+01  1.20000000E+01
  1.00782504E+00  1.00782504E+00  1.00782504E+00  1.00782504E+00  1.00782504E+00
  1.00782504E+00  1.59949146E+01  1.59949146E+01  1.40030740E+01  1.00782504E+00
  1.20000000E+01  1.00782504E+00  1.00782504E+00  1.00782504E+00
Atom fragment info                         I   N=          29
           0           0           0           0           0           0
           0           0           0           0           0           0
           0           0           0           0           0           0
           0           0           0           0           0           0
           0           0           0           0           0
Atom residue num                           I   N=          29
           0           0           0           0           0           0
           0           0           0           0           0           0
           0           0           0           0           0           0
           0           0           0           0           0           0
           0           0           0           0           0
Nuclear spins                              I   N=          29
           0           0           0           0           0           0
           0           0           0           0           0           1
           0           0           0           1           1           1
           1           1           1           0           0           2
           1           0           1           1           1
Nuclear ZEff                               R   N=          29
 -3.60000000E+00 -3.60000000E+00 -3.60000000E+00 -3.60000000E+00 -3.60000000E+00
 -3.60000000E+00 -3.60000000E+00 -3.60000000E+00 -3.60000000E+00 -3.60000000E+00
 -3.60000000E+00 -1.00000000E+00 -3.60000000E+00 -3.60000000E+00 -3.60000000E+00
 -1.00000000E+00 -1.00000000E+00 -1.00000000E+00 -1.00000000E+00 -1.00000000E+00
 -1.00000000E+00 -5.60000000E+00 -5.60000000E+00 -4.55000000E+00 -1.00000000E+00
 -3.60000000E+00 -1.00000000E+00 -1.00000000E+00 -1.00000000E+00
Nuclear ZNuc                               R   N=          29
  6.00000000E+00  6.00000000E+00  6.00000000E+00  6.00000000E+00  6.00000000E+00
  6.00000000E+00  6.00000000E+00  6.00000000E+00  6.00000000E+00  6.00000000E+00
  6.00000000E+00  1.00000000E+00  6.00000000E+00  6.00000000E+00  6.00000000E+00
  1.00000000E+00  1.00000000E+00  1.00000000E+00  1.00000000E+00  1.00000000E+00
  1.00000000E+00  8.00000000E+00  8.00000000E+00  7.00000000E+00  1.00000000E+00
  6.00000000E+00  1.00000000E+00  1.00000000E+00  1.00000000E+00
Nuclear QMom                               R   N=          29
  0.00000000E+00  0.00000000E+00  0.00000000E+00  0.00000000E+00  0.00000000E+00
  0.00000000E+00  0.00000000E+00  0.00000000E+00  0.00000000E+00  0.00000000E+00
  0.00000000E+00  0.00000000E+00  0.00000000E+00  0.00000000E+00  0.00000000E+00
  0.00000000E+00  0.00000000E+00  0.00000000E+00  0.00000000E+00  0.00000000E+00
  0.00000000E+00  0.00000000E+00  0.00000000E+00  2.04400000E+00  0.00000000E+00
  0.00000000E+00  0.00000000E+00  0.00000000E+00  0.00000000E+00
Nuclear GFac                               R   N=          29
  0.00000000E+00  0.00000000E+00  0.00000000E+00  0.00000000E+00  0.00000000E+00
  0.00000000E+00  0.00000000E+00  0.00000000E+00  0.00000000E+00  0.00000000E+00
  0.00000000E+00  2.79284600E+00  0.00000000E+00  0.00000000E+00  0.00000000E+00
  2.79284600E+00  2.79284600E+00  2.79284600E+00  2.79284600E+00  2.79284600E+00
  2.79284600E+00  0.00000000E+00  0.00000000E+00  4.03761000E-01  2.79284600E+00
  0.00000000E+00  2.79284600E+00  2.79284600E+00  2.79284600E+00
MicOpt                                     I   N=          29
          -1          -1          -1          -1          -1          -1
          -1          -1          -1          -1          -1          -1
          -1          -1          -1          -1          -1          -1
          -1          -1          -1          -1          -1          -1
          -1          -1          -1          -1          -1
SymInf integers                            I   N=          26
           1           1           1           1           1           0
           0           0           0           0           0           0
           0           0           0           0           0           0
           0           0           0           0           0           0
           0           0
RotTr to input orientation                 R   N=          12
  7.05271170E-01  7.08651095E-01  2.01544735E-02  7.03059899E-01 -7.02794363E-01
  1.08567318E-01  9.11007991E-02 -6.23995973E-02 -9.93884769E-01 -5.82904383E-01
 -2.91474080E-01 -1.40676159E-01
Number of contracted shells                I               94
Number of primitive shells                 I              242
Pure/Cartesian d shells                    I                1
Pure/Cartesian f shells                    I                0
Highest angular momentum                   I                2
Largest degree of contraction              I                6
Shell types                                I   N=          94
           0          -1          -1           2           0          -1
          -1           2           0          -1          -1           2
           0          -1          -1           2           0          -1
          -1           2           0          -1          -1           2
           0          -1          -1           2           0          -1
          -1           2           0          -1          -1           2
           0          -1          -1           2           0          -1
          -1           2           0           0           0          -1
          -1           2           0          -1          -1           2
           0          -1          -1           2           0           0
           0           0           0           0           0           0
           0           0           0           0           0          -1
          -1           2           0          -1          -1           2
           0          -1          -1           2           0           0
           0          -1          -1           2           0           0
           0           0           0           0
Number of primitives per shell             I   N=          94
           6           3           1           1           6           3
           1           1           6           3           1           1
           6           3           1           1           6           3
           1           1           6           3           1           1
           6           3           1           1           6           3
           1           1           6           3           1           1
           6           3           1           1           6           3
           1           1           3           1           6           3
           1           1           6           3           1           1
           6           3           1           1           3           1
           3           1           3           1           3           1
           3           1           3           1           6           3
           1           1           6           3           1           1
           6           3           1           1           3           1
           6           3           1           1           3           1
           3           1           3           1
Shell to atom map                          I   N=          94
           1           1           1           1           2           2
           2           2           3           3           3           3
           4           4           4           4           5           5
           5           5           6           6           6           6
           7           7           7           7           8           8
           8           8           9           9           9           9
          10          10          10          10          11          11
          11          11          12          12          13          13
          13          13          14          14          14          14
          15          15          15          15          16          16
          17          17          18          18          19          19
          20          20          21          21          22          22
          22          22          23          23          23          23
          24          24          24          24          25          25
          26          26          26          26          27          27
          28          28          29          29
Primitive exponents                        R   N=         242
  3.04752488E+03  4.57369518E+02  1.03948685E+02  2.92101553E+01  9.28666296E+00
  3.16392696E+00  7.86827235E+00  1.88128854E+00  5.44249258E-01  1.68714478E-01
  8.00000000E-01  3.04752488E+03  4.57369518E+02  1.03948685E+02  2.92101553E+01
  9.28666296E+00  3.16392696E+00  7.86827235E+00  1.88128854E+00  5.44249258E-01
  1.68714478E-01  8.00000000E-01  3.04752488E+03  4.57369518E+02  1.03948685E+02
  2.92101553E+01  9.28666296E+00  3.16392696E+00  7.86827235E+00  1.88128854E+00
  5.44249258E-01  1.68714478E-01  8.00000000E-01  3.04752488E+03  4.57369518E+02
  1.03948685E+02  2.92101553E+01  9.28666296E+00  3.16392696E+00  7.86827235E+00
  1.88128854E+00  5.44249258E-01  1.68714478E-01  8.00000000E-01  3.04752488E+03
  4.57369518E+02  1.03948685E+02  2.92101553E+01  9.28666296E+00  3.16392696E+00
  7.86827235E+00  1.88128854E+00  5.44249258E-01  1.68714478E-01  8.00000000E-01
  3.04752488E+03  4.57369518E+02  1.03948685E+02  2.92101553E+01  9.28666296E+00
  3.16392696E+00  7.86827235E+00  1.88128854E+00  5.44249258E-01  1.68714478E-01
  8.00000000E-01  3.04752488E+03  4.57369518E+02  1.03948685E+02  2.92101553E+01
  9.28666296E+00  3.16392696E+00  7.86827235E+00  1.88128854E+00  5.44249258E-01
  1.68714478E-01  8.00000000E-01  3.04752488E+03  4.57369518E+02  1.03948685E+02
  2.92101553E+01  9.28666296E+00  3.16392696E+00  7.86827235E+00  1.88128854E+00
  5.44249258E-01  1.68714478E-01  8.00000000E-01  3.04752488E+03  4.57369518E+02
  1.03948685E+02  2.92101553E+01  9.28666296E+00  3.16392696E+00  7.86827235E+00
  1.88128854E+00  5.44249258E-01  1.68714478E-01  8.00000000E-01  3.04752488E+03
  4.57369518E+02  1.03948685E+02  2.92101553E+01  9.28666296E+00  3.16392696E+00
  7.86827235E+00  1.88128854E+00  5.44249258E-01  1.68714478E-01  8.00000000E-01
  3.04752488E+03  4.57369518E+02  1.03948685E+02  2.92101553E+01  9.28666296E+00
  3.16392696E+00  7.86827235E+00  1.88128854E+00  5.44249258E-01  1.68714478E-01
  8.00000000E-01  1.87311370E+01  2.82539436E+00  6.40121692E-01  1.61277759E-01
  3.04752488E+03  4.57369518E+02  1.03948685E+02  2.92101553E+01  9.28666296E+00
  3.16392696E+00  7.86827235E+00  1.88128854E+00  5.44249258E-01  1.68714478E-01
  8.00000000E-01  3.04752488E+03  4.57369518E+02  1.03948685E+02  2.92101553E+01
  9.28666296E+00  3.16392696E+00  7.86827235E+00  1.88128854E+00  5.44249258E-01
  1.68714478E-01  8.00000000E-01  3.04752488E+03  4.57369518E+02  1.03948685E+02
  2.92101553E+01  9.28666296E+00  3.16392696E+00  7.86827235E+00  1.88128854E+00
  5.44249258E-01  1.68714478E-01  8.00000000E-01  1.87311370E+01  2.82539436E+00
  6.40121692E-01  1.61277759E-01  1.87311370E+01  2.82539436E+00  6.40121692E-01
  1.61277759E-01  1.87311370E+01  2.82539436E+00  6.40121692E-01  1.61277759E-01
  1.87311370E+01  2.82539436E+00  6.40121692E-01  1.61277759E-01  1.87311370E+01
  2.82539436E+00  6.40121692E-01  1.61277759E-01  1.87311370E+01  2.82539436E+00
  6.40121692E-01  1.61277759E-01  5.48467166E+03  8.25234946E+02  1.88046958E+02
  5.29645000E+01  1.68975704E+01  5.79963534E+00  1.55396162E+01  3.59993359E+00
  1.01376175E+00  2.70005823E-01  8.00000000E-01  5.48467166E+03  8.25234946E+02
  1.88046958E+02  5.29645000E+01  1.68975704E+01  5.79963534E+00  1.55396162E+01
  3.59993359E+00  1.01376175E+00  2.70005823E-01  8.00000000E-01  4.17351146E+03
  6.27457911E+02  1.42902093E+02  4.02343293E+01  1.28202129E+01  4.39043701E+00
  1.16263619E+01  2.71627981E+00  7.72218397E-01  2.12031498E-01  8.00000000E-01
  1.87311370E+01  2.82539436E+00  6.40121692E-01  1.61277759E-01  3.04752488E+03
  4.57369518E+02  1.03948685E+02  2.92101553E+01  9.28666296E+00  3.16392696E+00
  7.86827235E+00  1.88128854E+00  5.44249258E-01  1.68714478E-01  8.00000000E-01
  1.87311370E+01  2.82539436E+00  6.40121692E-01  1.61277759E-01  1.87311370E+01
  2.82539436E+00  6.40121692E-01  1.61277759E-01  1.87311370E+01  2.82539436E+00
  6.40121692E-01  1.61277759E-01
Contraction coefficients                   R   N=         242
  1.83473713E-03  1.40373228E-02  6.88426223E-02  2.32184443E-01  4.67941348E-01
  3.62311985E-01 -1.19332420E-01 -1.60854152E-01  1.14345644E+00  1.00000000E+00
  1.00000000E+00  1.83473713E-03  1.40373228E-02  6.88426223E-02  2.32184443E-01
  4.67941348E-01  3.62311985E-01 -1.19332420E-01 -1.60854152E-01  1.14345644E+00
  1.00000000E+00  1.00000000E+00  1.83473713E-03  1.40373228E-02  6.88426223E-02
  2.32184443E-01  4.67941348E-01  3.62311985E-01 -1.19332420E-01 -1.60854152E-01
  1.14345644E+00  1.00000000E+00  1.00000000E+00  1.83473713E-03  1.40373228E-02
  6.88426223E-02  2.32184443E-01  4.67941348E-01  3.62311985E-01 -1.19332420E-01
 -1.60854152E-01  1.14345644E+00  1.00000000E+00  1.00000000E+00  1.83473713E-03
  1.40373228E-02  6.88426223E-02  2.32184443E-01  4.67941348E-01  3.62311985E-01
 -1.19332420E-01 -1.60854152E-01  1.14345644E+00  1.00000000E+00  1.00000000E+00
  1.83473713E-03  1.40373228E-02  6.88426223E-02  2.32184443E-01  4.67941348E-01
  3.62311985E-01 -1.19332420E-01 -1.60854152E-01  1.14345644E+00  1.00000000E+00
  1.00000000E+00  1.83473713E-03  1.40373228E-02  6.88426223E-02  2.32184443E-01
  4.67941348E-01  3.62311985E-01 -1.19332420E-01 -1.60854152E-01  1.14345644E+00
  1.00000000E+00  1.00000000E+00  1.83473713E-03  1.40373228E-02  6.88426223E-02
  2.32184443E-01  4.67941348E-01  3.62311985E-01 -1.19332420E-01 -1.60854152E-01
  1.14345644E+00  1.00000000E+00  1.00000000E+00  1.83473713E-03  1.40373228E-02
  6.88426223E-02  2.32184443E-01  4.67941348E-01  3.62311985E-01 -1.19332420E-01
 -1.60854152E-01  1.14345644E+00  1.00000000E+00  1.00000000E+00  1.83473713E-03
  1.40373228E-02  6.88426223E-02  2.32184443E-01  4.67941348E-01  3.62311985E-01
 -1.19332420E-01 -1.60854152E-01  1.14345644E+00  1.00000000E+00  1.00000000E+00
  1.83473713E-03  1.40373228E-02  6.88426223E-02  2.32184443E-01  4.67941348E-01
  3.62311985E-01 -1.19332420E-01 -1.60854152E-01  1.14345644E+00  1.00000000E+00
  1.00000000E+00  3.34946043E-02  2.34726953E-01  8.13757326E-01  1.00000000E+00
  1.83473713E-03  1.40373228E-02  6.88426223E-02  2.32184443E-01  4.67941348E-01
  3.62311985E-01 -1.19332420E-01 -1.60854152E-01  1.14345644E+00  1.00000000E+00
  1.00000000E+00  1.83473713E-03  1.40373228E-02  6.88426223E-02  2.32184443E-01
  4.67941348E-01  3.62311985E-01 -1.19332420E-01 -1.60854152E-01  1.14345644E+00
  1.00000000E+00  1.00000000E+00  1.83473713E-03  1.40373228E-02  6.88426223E-02
  2.32184443E-01  4.67941348E-01  3.62311985E-01 -1.19332420E-01 -1.60854152E-01
  1.14345644E+00  1.00000000E+00  1.00000000E+00  3.34946043E-02  2.34726953E-01
  8.13757326E-01  1.00000000E+00  3.34946043E-02  2.34726953E-01  8.13757326E-01
  1.00000000E+00  3.34946043E-02  2.34726953E-01  8.13757326E-01  1.00000000E+00
  3.34946043E-02  2.34726953E-01  8.13757326E-01  1.00000000E+00  3.34946043E-02
  2.34726953E-01  8.13757326E-01  1.00000000E+00  3.34946043E-02  2.34726953E-01
  8.13757326E-01  1.00000000E+00  1.83107443E-03  1.39501722E-02  6.84450781E-02
  2.32714336E-01  4.70192898E-01  3.58520853E-01 -1.10777550E-01 -1.48026263E-01
  1.13076702E+00  1.00000000E+00  1.00000000E+00  1.83107443E-03  1.39501722E-02
  6.84450781E-02  2.32714336E-01  4.70192898E-01  3.58520853E-01 -1.10777550E-01
 -1.48026263E-01  1.13076702E+00  1.00000000E+00  1.00000000E+00  1.83477216E-03
  1.39946270E-02  6.85865518E-02  2.32240873E-01  4.69069948E-01  3.60455199E-01
 -1.14961182E-01 -1.69117479E-01  1.14585195E+00  1.00000000E+00  1.00000000E+00
  3.34946043E-02  2.34726953E-01  8.13757326E-01  1.00000000E+00  1.83473713E-03
  1.40373228E-02  6.88426223E-02  2.32184443E-01  4.67941348E-01  3.62311985E-01
 -1.19332420E-01 -1.60854152E-01  1.14345644E+00  1.00000000E+00  1.00000000E+00
  3.34946043E-02  2.34726953E-01  8.13757326E-01  1.00000000E+00  3.34946043E-02
  2.34726953E-01  8.13757326E-01  1.00000000E+00  3.34946043E-02  2.34726953E-01
  8.13757326E-01  1.00000000E+00
P(S=P) Contraction coefficients            R   N=         242
  0.00000000E+00  0.00000000E+00  0.00000000E+00  0.00000000E+00  0.00000000E+00
  0.00000000E+00  6.89990666E-02  3.16423961E-01  7.44308291E-01  1.00000000E+00
  0.00000000E+00  0.00000000E+00  0.00000000E+00  0.00000000E+00  0.00000000E+00
  0.00000000E+00  0.00000000E+00  6.89990666E-02  3.16423961E-01  7.44308291E-01
  1.00000000E+00  0.00000000E+00  0.00000000E+00  0.00000000E+00  0.00000000E+00
  0.00000000E+00  0.00000000E+00  0.00000000E+00  6.89990666E-02  3.16423961E-01
  7.44308291E-01  1.00000000E+00  0.00000000E+00  0.00000000E+00  0.00000000E+00
  0.00000000E+00  0.00000000E+00  0.00000000E+00  0.00000000E+00  6.89990666E-02
  3.16423961E-01  7.44308291E-01  1.00000000E+00  0.00000000E+00  0.00000000E+00
  0.00000000E+00  0.00000000E+00  0.00000000E+00  0.00000000E+00  0.00000000E+00
  6.89990666E-02  3.16423961E-01  7.44308291E-01  1.00000000E+00  0.00000000E+00
  0.00000000E+00  0.00000000E+00  0.00000000E+00  0.00000000E+00  0.00000000E+00
  0.00000000E+00  6.89990666E-02  3.16423961E-01  7.44308291E-01  1.00000000E+00
  0.00000000E+00  0.00000000E+00  0.00000000E+00  0.00000000E+00  0.00000000E+00
  0.00000000E+00  0.00000000E+00  6.89990666E-02  3.16423961E-01  7.44308291E-01
  1.00000000E+00  0.00000000E+00  0.00000000E+00  0.00000000E+00  0.00000000E+00
  0.00000000E+00  0.00000000E+00  0.00000000E+00  6.89990666E-02  3.16423961E-01
  7.44308291E-01  1.00000000E+00  0.00000000E+00  0.00000000E+00  0.00000000E+00
  0.00000000E+00  0.00000000E+00  0.00000000E+00  0.00000000E+00  6.89990666E-02
  3.16423961E-01  7.44308291E-01  1.00000000E+00  0.00000000E+00  0.00000000E+00
  0.00000000E+00  0.00000000E+00  0.00000000E+00  0.00000000E+00  0.00000000E+00
  6.89990666E-02  3.16423961E-01  7.44308291E-01  1.00000000E+00  0.00000000E+00
  0.00000000E+00  0.00000000E+00  0.00000000E+00  0.00000000E+00  0.00000000E+00
  0.00000000E+00  6.89990666E-02  3.16423961E-01  7.44308291E-01  1.00000000E+00
  0.00000000E+00  0.00000000E+00  0.00000000E+00  0.00000000E+00  0.00000000E+00
  0.00000000E+00  0.00000000E+00  0.00000000E+00  0.00000000E+00  0.00000000E+00
  0.00000000E+00  6.89990666E-02  3.16423961E-01  7.44308291E-01  1.00000000E+00
  0.00000000E+00  0.00000000E+00  0.00000000E+00  0.00000000E+00  0.00000000E+00
  0.00000000E+00  0.00000000E+00  6.89990666E-02  3.16423961E-01  7.44308291E-01
  1.00000000E+00  0.00000000E+00  0.00000000E+00  0.00000000E+00  0.00000000E+00
  0.00000000E+00  0.00000000E+00  0.00000000E+00  6.89990666E-02  3.16423961E-01
  7.44308291E-01  1.00000000E+00  0.00000000E+00  0.00000000E+00  0.00000000E+00
  0.00000000E+00  0.00000000E+00  0.00000000E+00  0.00000000E+00  0.00000000E+00
  0.00000000E+00  0.00000000E+00  0.00000000E+00  0.00000000E+00  0.00000000E+00
  0.00000000E+00  0.00000000E+00  0.00000000E+00  0.00000000E+00  0.00000000E+00
  0.00000000E+00  0.00000000E+00  0.00000000E+00  0.00000000E+00  0.00000000E+00
  0.00000000E+00  0.00000000E+00  0.00000000E+00  0.00000000E+00  0.00000000E+00
  0.00000000E+00  0.00000000E+00  0.00000000E+00  7.08742682E-02  3.39752839E-01
  7.27158577E-01  1.00000000E+00  0.00000000E+00  0.00000000E+00  0.00000000E+00
  0.00000000E+00  0.00000000E+00  0.00000000E+00  0.00000000E+00  7.08742682E-02
  3.39752839E-01  7.27158577E-01  1.00000000E+00  0.00000000E+00  0.00000000E+00
  0.00000000E+00  0.00000000E+00  0.00000000E+00  0.00000000E+00  0.00000000E+00
  6.75797439E-02  3.23907296E-01  7.40895140E-01  1.00000000E+00  0.00000000E+00
  0.00000000E+00  0.00000000E+00  0.00000000E+00  0.00000000E+00  0.00000000E+00
  0.00000000E+00  0.00000000E+00  0.00000000E+00  0.00000000E+00  0.00000000E+00
  6.89990666E-02  3.16423961E-01  7.44308291E-01  1.00000000E+00  0.00000000E+00
  0.00000000E+00  0.00000000E+00  0.00000000E+00  0.00000000E+00  0.00000000E+00
  0.00000000E+00  0.00000000E+00  0.00000000E+00  0.00000000E+00  0.00000000E+00
  0.00000000E+00  0.00000000E+00
Coordinates of each shell                  R   N=         282
 -7.81811777E+00 -1.77783382E-01  3.42362565E-01 -7.81811777E+00 -1.77783382E-01
  3.42362565E-01 -7.81811777E+00 -1.77783382E-01  3.42362565E-01 -7.81811777E+00
 -1.77783382E-01  3.42362565E-01 -6.02517011E+00  1.74230611E+00  4.47909075E-01
 -6.02517011E+00  1.74230611E+00  4.47909075E-01 -6.02517011E+00  1.74230611E+00
  4.47909075E-01 -6.02517011E+00  1.74230611E+00  4.47909075E-01 -3.45847696E+00
  1.17455247E+00  1.42399887E-01 -3.45847696E+00  1.17455247E+00  1.42399887E-01
 -3.45847696E+00  1.17455247E+00  1.42399887E-01 -3.45847696E+00  1.17455247E+00
  1.42399887E-01 -2.68966136E+00 -1.32966058E+00 -2.82213456E-01 -2.68966136E+00
 -1.32966058E+00 -2.82213456E-01 -2.68966136E+00 -1.32966058E+00 -2.82213456E-01
 -2.68966136E+00 -1.32966058E+00 -2.82213456E-01 -4.50867333E+00 -3.24644313E+00
 -4.14605478E-01 -4.50867333E+00 -3.24644313E+00 -4.14605478E-01 -4.50867333E+00
 -3.24644313E+00 -4.14605478E-01 -4.50867333E+00 -3.24644313E+00 -4.14605478E-01
 -7.05657698E+00 -2.67502330E+00 -9.22368895E-02 -7.05657698E+00 -2.67502330E+00
 -9.22368895E-02 -7.05657698E+00 -2.67502330E+00 -9.22368895E-02 -7.05657698E+00
 -2.67502330E+00 -9.22368895E-02 -1.56282185E+00  3.24168347E+00  2.05427999E-01
 -1.56282185E+00  3.24168347E+00  2.05427999E-01 -1.56282185E+00  3.24168347E+00
  2.05427999E-01 -1.56282185E+00  3.24168347E+00  2.05427999E-01  3.50852778E-02
 -2.01197935E+00 -6.26921869E-01  3.50852778E-02 -2.01197935E+00 -6.26921869E-01
  3.50852778E-02 -2.01197935E+00 -6.26921869E-01  3.50852778E-02 -2.01197935E+00
 -6.26921869E-01  1.95613053E+00 -3.79201733E-02 -1.42413068E-01  1.95613053E+00
 -3.79201733E-02 -1.42413068E-01  1.95613053E+00 -3.79201733E-02 -1.42413068E-01
  1.95613053E+00 -3.79201733E-02 -1.42413068E-01  1.16637251E+00  2.53509216E+00
 -3.10129508E-02  1.16637251E+00  2.53509216E+00 -3.10129508E-02  1.16637251E+00
  2.53509216E+00 -3.10129508E-02  1.16637251E+00  2.53509216E+00 -3.10129508E-02
  2.89229952E+00  4.51132318E+00 -1.34782879E-01  2.89229952E+00  4.51132318E+00
 -1.34782879E-01  2.89229952E+00  4.51132318E+00 -1.34782879E-01  2.89229952E+00
  4.51132318E+00 -1.34782879E-01  2.19074975E+00  6.43364539E+00 -5.19072403E-02
  2.19074975E+00  6.43364539E+00 -5.19072403E-02  5.46801177E+00  3.97339047E+00
 -3.71504506E-01  5.46801177E+00  3.97339047E+00 -3.71504506E-01  5.46801177E+00
  3.97339047E+00 -3.71504506E-01  5.46801177E+00  3.97339047E+00 -3.71504506E-01
  6.29890050E+00  1.49787309E+00 -3.51598485E-01  6.29890050E+00  1.49787309E+00
 -3.51598485E-01  6.29890050E+00  1.49787309E+00 -3.51598485E-01  6.29890050E+00
  1.49787309E+00 -3.51598485E-01  4.60353472E+00 -5.66572592E-01 -1.31831374E-01
  4.60353472E+00 -5.66572592E-01 -1.31831374E-01  4.60353472E+00 -5.66572592E-01
 -1.31831374E-01  4.60353472E+00 -5.66572592E-01 -1.31831374E-01 -9.80899164E+00
  2.61946131E-01  5.85767789E-01 -9.80899164E+00  2.61946131E-01  5.85767789E-01
 -6.55968966E+00  3.69794243E+00  7.54974323E-01 -6.55968966E+00  3.69794243E+00
  7.54974323E-01 -3.87868959E+00 -5.16404860E+00 -7.72493000E-01 -3.87868959E+00
 -5.16404860E+00 -7.72493000E-01 -8.45850794E+00 -4.17295372E+00 -1.82549045E-01
 -8.45850794E+00 -4.17295372E+00 -1.82549045E-01  6.83397332E+00  5.50042720E+00
 -5.09598553E-01  6.83397332E+00  5.50042720E+00 -5.09598553E-01  8.31548136E+00
  1.09934508E+00 -4.28701529E-01  8.31548136E+00  1.09934508E+00 -4.28701529E-01
  5.78333106E-01 -4.14204049E+00 -1.39059670E+00  5.78333106E-01 -4.14204049E+00
 -1.39059670E+00  5.78333106E-01 -4.14204049E+00 -1.39059670E+00  5.78333106E-01
 -4.14204049E+00 -1.39059670E+00 -2.21036721E+00  5.45494372E+00  4.54248869E-01
 -2.21036721E+00  5.45494372E+00  4.54248869E-01 -2.21036721E+00  5.45494372E+00
  4.54248869E-01 -2.21036721E+00  5.45494372E+00  4.54248869E-01  5.65974693E+00
 -2.93119522E+00  9.82868575E-02  5.65974693E+00 -2.93119522E+00  9.82868575E-02
  5.65974693E+00 -2.93119522E+00  9.82868575E-02  5.65974693E+00 -2.93119522E+00
  9.82868575E-02  7.56707066E+00 -2.88508328E+00  1.45666659E-02  7.56707066E+00
 -2.88508328E+00  1.45666659E-02  4.68213686E+00 -4.99542822E+00  1.64160035E+00
  4.68213686E+00 -4.99542822E+00  1.64160035E+00  4.68213686E+00 -4.99542822E+00