Title Card Required                                                     
FOpt      RB3LYP                                                      6-31G(d)            
Number of atoms                            I               28
Info1-9                                    I   N=           9
          64          64           0           0           0         110
           2          18        -502
Charge                                     I                0
Multiplicity                               I                1
Number of electrons                        I               88
Number of alpha electrons                  I               44
Number of beta electrons                   I               44
Number of basis functions                  I              212
Number of independent functions            I              212
Number of point charges in /Mol/           I                0
Number of translation vectors              I                0
Atomic numbers                             I   N=          28
           6           1           6           1           6           1
           6           1           6           1           6           1
           6           1           6           1           6           1
           6           1           6           1           1           1
           6           1           1           1
Nuclear charges                            R   N=          28
  6.00000000E+00  1.00000000E+00  6.00000000E+00  1.00000000E+00  6.00000000E+00
  1.00000000E+00  6.00000000E+00  1.00000000E+00  6.00000000E+00  1.00000000E+00
  6.00000000E+00  1.00000000E+00  6.00000000E+00  1.00000000E+00  6.00000000E+00
  1.00000000E+00  6.00000000E+00  1.00000000E+00  6.00000000E+00  1.00000000E+00
  6.00000000E+00  1.00000000E+00  1.00000000E+00  1.00000000E+00  6.00000000E+00
  1.00000000E+00  1.00000000E+00  1.00000000E+00
Current cartesian coordinates              R   N=          84
  5.79313421E+00 -7.18968395E-01  5.51003434E-06  5.76070558E+00 -2.78056602E+00
 -2.65885881E-05  3.56211189E+00  5.48852908E-01  6.55049409E-05  3.59757198E+00
  2.61061774E+00 -1.11339871E-04  1.11725993E+00 -6.35182225E-01 -3.17614250E-05
  1.08023464E+00 -2.69677986E+00 -1.73800693E-04 -1.11725992E+00  6.35182249E-01
  3.08434901E-05 -1.08023462E+00  2.69677988E+00  1.72968321E-04 -3.56211189E+00
 -5.48852891E-01 -6.63493406E-05 -3.59757198E+00 -2.61061773E+00  1.10004980E-04
 -5.79313421E+00  7.18968403E-01 -5.63593321E-06 -5.76070559E+00  2.78056603E+00
  2.70552918E-05 -8.25009297E+00 -4.73316319E-01  1.92212732E-04 -8.27578410E+00
 -2.53592965E+00  1.18950056E-04 -1.04650765E+01  7.82488356E-01  3.75119994E-06
 -1.04271106E+01  2.84445008E+00 -4.24399233E-05  8.25009297E+00  4.73316317E-01
 -1.92215035E-04  8.27578409E+00  2.53592964E+00 -1.19315137E-04  1.04650765E+01
 -7.82488368E-01 -3.09469881E-06  1.04271106E+01 -2.84445009E+00  4.35566410E-05
  1.30248701E+01  4.27223004E-01  6.43686929E-05  1.41308187E+01 -1.44342245E-01
 -1.66271687E+00  1.28922427E+01  2.49268983E+00  5.89542440E-04  1.41310140E+01
 -1.45110599E-01  1.66248431E+00 -1.30248701E+01 -4.27223030E-01 -6.34634758E-05
 -1.41308184E+01  1.44341875E-01  1.66271810E+00 -1.41310143E+01  1.45110905E-01
 -1.66248308E+00 -1.28922427E+01 -2.49268985E+00 -5.89081392E-04
Force Field                                I                0
Int Atom Types                             I   N=          28
           0           0           0           0           0           0
           0           0           0           0           0           0
           0           0           0           0           0           0
           0           0           0           0           0           0
           0           0           0           0
MM charges                                 R   N=          28
  0.00000000E+00  0.00000000E+00  0.00000000E+00  0.00000000E+00  0.00000000E+00
  0.00000000E+00  0.00000000E+00  0.00000000E+00  0.00000000E+00  0.00000000E+00
  0.00000000E+00  0.00000000E+00  0.00000000E+00  0.00000000E+00  0.00000000E+00
  0.00000000E+00  0.00000000E+00  0.00000000E+00  0.00000000E+00  0.00000000E+00
  0.00000000E+00  0.00000000E+00  0.00000000E+00  0.00000000E+00  0.00000000E+00
  0.00000000E+00  0.00000000E+00  0.00000000E+00
Integer atomic weights                     I   N=          28
          12           1          12           1          12           1
          12           1          12           1          12           1
          12           1          12           1          12           1
          12           1          12           1           1           1
          12           1           1           1
Real atomic weights                        R   N=          28
  1.20000000E+01  1.00782504E+00  1.20000000E+01  1.00782504E+00  1.20000000E+01
  1.00782504E+00  1.20000000E+01  1.00782504E+00  1.20000000E+01  1.00782504E+00
  1.20000000E+01  1.00782504E+00  1.20000000E+01  1.00782504E+00  1.20000000E+01
  1.00782504E+00  1.20000000E+01  1.00782504E+00  1.20000000E+01  1.00782504E+00
  1.20000000E+01  1.00782504E+00  1.00782504E+00  1.00782504E+00  1.20000000E+01
  1.00782504E+00  1.00782504E+00  1.00782504E+00
Atom fragment info                         I   N=          28
           0           0           0           0           0           0
           0           0           0           0           0           0
           0           0           0           0           0           0
           0           0           0           0           0           0
           0           0           0           0
Atom residue num                           I   N=          28
           0           0           0           0           0           0
           0           0           0           0           0           0
           0           0           0           0           0           0
           0           0           0           0           0           0
           0           0           0           0
Nuclear spins                              I   N=          28
           0           1           0           1           0           1
           0           1           0           1           0           1
           0           1           0           1           0           1
           0           1           0           1           1           1
           0           1           1           1
Nuclear ZEff                               R   N=          28
 -3.60000000E+00 -1.00000000E+00 -3.60000000E+00 -1.00000000E+00 -3.60000000E+00
 -1.00000000E+00 -3.60000000E+00 -1.00000000E+00 -3.60000000E+00 -1.00000000E+00
 -3.60000000E+00 -1.00000000E+00 -3.60000000E+00 -1.00000000E+00 -3.60000000E+00
 -1.00000000E+00 -3.60000000E+00 -1.00000000E+00 -3.60000000E+00 -1.00000000E+00
 -3.60000000E+00 -1.00000000E+00 -1.00000000E+00 -1.00000000E+00 -3.60000000E+00
 -1.00000000E+00 -1.00000000E+00 -1.00000000E+00
Nuclear ZNuc                               R   N=          28
  6.00000000E+00  1.00000000E+00  6.00000000E+00  1.00000000E+00  6.00000000E+00
  1.00000000E+00  6.00000000E+00  1.00000000E+00  6.00000000E+00  1.00000000E+00
  6.00000000E+00  1.00000000E+00  6.00000000E+00  1.00000000E+00  6.00000000E+00
  1.00000000E+00  6.00000000E+00  1.00000000E+00  6.00000000E+00  1.00000000E+00
  6.00000000E+00  1.00000000E+00  1.00000000E+00  1.00000000E+00  6.00000000E+00
  1.00000000E+00  1.00000000E+00  1.00000000E+00
Nuclear QMom                               R   N=          28
  0.00000000E+00  0.00000000E+00  0.00000000E+00  0.00000000E+00  0.00000000E+00
  0.00000000E+00  0.00000000E+00  0.00000000E+00  0.00000000E+00  0.00000000E+00
  0.00000000E+00  0.00000000E+00  0.00000000E+00  0.00000000E+00  0.00000000E+00
  0.00000000E+00  0.00000000E+00  0.00000000E+00  0.00000000E+00  0.00000000E+00
  0.00000000E+00  0.00000000E+00  0.00000000E+00  0.00000000E+00  0.00000000E+00
  0.00000000E+00  0.00000000E+00  0.00000000E+00
Nuclear GFac                               R   N=          28
  0.00000000E+00  2.79284600E+00  0.00000000E+00  2.79284600E+00  0.00000000E+00
  2.79284600E+00  0.00000000E+00  2.79284600E+00  0.00000000E+00  2.79284600E+00
  0.00000000E+00  2.79284600E+00  0.00000000E+00  2.79284600E+00  0.00000000E+00
  2.79284600E+00  0.00000000E+00  2.79284600E+00  0.00000000E+00  2.79284600E+00
  0.00000000E+00  2.79284600E+00  2.79284600E+00  2.79284600E+00  0.00000000E+00
  2.79284600E+00  2.79284600E+00  2.79284600E+00
MicOpt                                     I   N=          28
          -1          -1          -1          -1          -1          -1
          -1          -1          -1          -1          -1          -1
          -1          -1          -1          -1          -1          -1
          -1          -1          -1          -1          -1          -1
          -1          -1          -1          -1
SymInf integers                            I   N=          26
           1           1           1           1           1           0
           0           0           0           0           0           0
           0           0           0           0           0           0
           0           0           0           0           0           0
           0           0
RotTr to input orientation                 R   N=          12
  5.04284821E-02 -9.97756708E-01 -4.40286333E-02  9.60649811E-01  6.05155894E-02
 -2.71090030E-01  2.73146315E-01 -2.86254395E-02  9.61546502E-01 -4.87855030E+00
  2.37197175E+00  4.03146763E-01
Number of contracted shells                I               80
Number of primitive shells                 I              196
Pure/Cartesian d shells                    I                1
Pure/Cartesian f shells                    I                0
Highest angular momentum                   I                2
Largest degree of contraction              I                6
Shell types                                I   N=          80
           0          -1          -1           2           0           0
           0          -1          -1           2           0           0
           0          -1          -1           2           0           0
           0          -1          -1           2           0           0
           0          -1          -1           2           0           0
           0          -1          -1           2           0           0
           0          -1          -1           2           0           0
           0          -1          -1           2           0           0
           0          -1          -1           2           0           0
           0          -1          -1           2           0           0
           0          -1          -1           2           0           0
           0           0           0           0           0          -1
          -1           2           0           0           0           0
           0           0
Number of primitives per shell             I   N=          80
           6           3           1           1           3           1
           6           3           1           1           3           1
           6           3           1           1           3           1
           6           3           1           1           3           1
           6           3           1           1           3           1
           6           3           1           1           3           1
           6           3           1           1           3           1
           6           3           1           1           3           1
           6           3           1           1           3           1
           6           3           1           1           3           1
           6           3           1           1           3           1
           3           1           3           1           6           3
           1           1           3           1           3           1
           3           1
Shell to atom map                          I   N=          80
           1           1           1           1           2           2
           3           3           3           3           4           4
           5           5           5           5           6           6
           7           7           7           7           8           8
           9           9           9           9          10          10
          11          11          11          11          12          12
          13          13          13          13          14          14
          15          15          15          15          16          16
          17          17          17          17          18          18
          19          19          19          19          20          20
          21          21          21          21          22          22
          23          23          24          24          25          25
          25          25          26          26          27          27
          28          28
Primitive exponents                        R   N=         196
  3.04752488E+03  4.57369518E+02  1.03948685E+02  2.92101553E+01  9.28666296E+00
  3.16392696E+00  7.86827235E+00  1.88128854E+00  5.44249258E-01  1.68714478E-01
  8.00000000E-01  1.87311370E+01  2.82539436E+00  6.40121692E-01  1.61277759E-01
  3.04752488E+03  4.57369518E+02  1.03948685E+02  2.92101553E+01  9.28666296E+00
  3.16392696E+00  7.86827235E+00  1.88128854E+00  5.44249258E-01  1.68714478E-01
  8.00000000E-01  1.87311370E+01  2.82539436E+00  6.40121692E-01  1.61277759E-01
  3.04752488E+03  4.57369518E+02  1.03948685E+02  2.92101553E+01  9.28666296E+00
  3.16392696E+00  7.86827235E+00  1.88128854E+00  5.44249258E-01  1.68714478E-01
  8.00000000E-01  1.87311370E+01  2.82539436E+00  6.40121692E-01  1.61277759E-01
  3.04752488E+03  4.57369518E+02  1.03948685E+02  2.92101553E+01  9.28666296E+00
  3.16392696E+00  7.86827235E+00  1.88128854E+00  5.44249258E-01  1.68714478E-01
  8.00000000E-01  1.87311370E+01  2.82539436E+00  6.40121692E-01  1.61277759E-01
  3.04752488E+03  4.57369518E+02  1.03948685E+02  2.92101553E+01  9.28666296E+00
  3.16392696E+00  7.86827235E+00  1.88128854E+00  5.44249258E-01  1.68714478E-01
  8.00000000E-01  1.87311370E+01  2.82539436E+00  6.40121692E-01  1.61277759E-01
  3.04752488E+03  4.57369518E+02  1.03948685E+02  2.92101553E+01  9.28666296E+00
  3.16392696E+00  7.86827235E+00  1.88128854E+00  5.44249258E-01  1.68714478E-01
  8.00000000E-01  1.87311370E+01  2.82539436E+00  6.40121692E-01  1.61277759E-01
  3.04752488E+03  4.57369518E+02  1.03948685E+02  2.92101553E+01  9.28666296E+00
  3.16392696E+00  7.86827235E+00  1.88128854E+00  5.44249258E-01  1.68714478E-01
  8.00000000E-01  1.87311370E+01  2.82539436E+00  6.40121692E-01  1.61277759E-01
  3.04752488E+03  4.57369518E+02  1.03948685E+02  2.92101553E+01  9.28666296E+00
  3.16392696E+00  7.86827235E+00  1.88128854E+00  5.44249258E-01  1.68714478E-01
  8.00000000E-01  1.87311370E+01  2.82539436E+00  6.40121692E-01  1.61277759E-01
  3.04752488E+03  4.57369518E+02  1.03948685E+02  2.92101553E+01  9.28666296E+00
  3.16392696E+00  7.86827235E+00  1.88128854E+00  5.44249258E-01  1.68714478E-01
  8.00000000E-01  1.87311370E+01  2.82539436E+00  6.40121692E-01  1.61277759E-01
  3.04752488E+03  4.57369518E+02  1.03948685E+02  2.92101553E+01  9.28666296E+00
  3.16392696E+00  7.86827235E+00  1.88128854E+00  5.44249258E-01  1.68714478E-01
  8.00000000E-01  1.87311370E+01  2.82539436E+00  6.40121692E-01  1.61277759E-01
  3.04752488E+03  4.57369518E+02  1.03948685E+02  2.92101553E+01  9.28666296E+00
  3.16392696E+00  7.86827235E+00  1.88128854E+00  5.44249258E-01  1.68714478E-01
  8.00000000E-01  1.87311370E+01  2.82539436E+00  6.40121692E-01  1.61277759E-01
  1.87311370E+01  2.82539436E+00  6.40121692E-01  1.61277759E-01  1.87311370E+01
  2.82539436E+00  6.40121692E-01  1.61277759E-01  3.04752488E+03  4.57369518E+02
  1.03948685E+02  2.92101553E+01  9.28666296E+00  3.16392696E+00  7.86827235E+00
  1.88128854E+00  5.44249258E-01  1.68714478E-01  8.00000000E-01  1.87311370E+01
  2.82539436E+00  6.40121692E-01  1.61277759E-01  1.87311370E+01  2.82539436E+00
  6.40121692E-01  1.61277759E-01  1.87311370E+01  2.82539436E+00  6.40121692E-01
  1.61277759E-01
Contraction coefficients                   R   N=         196
  1.83473713E-03  1.40373228E-02  6.88426223E-02  2.32184443E-01  4.67941348E-01
  3.62311985E-01 -1.19332420E-01 -1.60854152E-01  1.14345644E+00  1.00000000E+00
  1.00000000E+00  3.34946043E-02  2.34726953E-01  8.13757326E-01  1.00000000E+00
  1.83473713E-03  1.40373228E-02  6.88426223E-02  2.32184443E-01  4.67941348E-01
  3.62311985E-01 -1.19332420E-01 -1.60854152E-01  1.14345644E+00  1.00000000E+00
  1.00000000E+00  3.34946043E-02  2.34726953E-01  8.13757326E-01  1.00000000E+00
  1.83473713E-03  1.40373228E-02  6.88426223E-02  2.32184443E-01  4.67941348E-01
  3.62311985E-01 -1.19332420E-01 -1.60854152E-01  1.14345644E+00  1.00000000E+00
  1.00000000E+00  3.34946043E-02  2.34726953E-01  8.13757326E-01  1.00000000E+00
  1.83473713E-03  1.40373228E-02  6.88426223E-02  2.32184443E-01  4.67941348E-01
  3.62311985E-01 -1.19332420E-01 -1.60854152E-01  1.14345644E+00  1.00000000E+00
  1.00000000E+00  3.34946043E-02  2.34726953E-01  8.13757326E-01  1.00000000E+00
  1.83473713E-03  1.40373228E-02  6.88426223E-02  2.32184443E-01  4.67941348E-01
  3.62311985E-01 -1.19332420E-01 -1.60854152E-01  1.14345644E+00  1.00000000E+00
  1.00000000E+00  3.34946043E-02  2.34726953E-01  8.13757326E-01  1.00000000E+00
  1.83473713E-03  1.40373228E-02  6.88426223E-02  2.32184443E-01  4.67941348E-01
  3.62311985E-01 -1.19332420E-01 -1.60854152E-01  1.14345644E+00  1.00000000E+00
  1.00000000E+00  3.34946043E-02  2.34726953E-01  8.13757326E-01  1.00000000E+00
  1.83473713E-03  1.40373228E-02  6.88426223E-02  2.32184443E-01  4.67941348E-01
  3.62311985E-01 -1.19332420E-01 -1.60854152E-01  1.14345644E+00  1.00000000E+00
  1.00000000E+00  3.34946043E-02  2.34726953E-01  8.13757326E-01  1.00000000E+00
  1.83473713E-03  1.40373228E-02  6.88426223E-02  2.32184443E-01  4.67941348E-01
  3.62311985E-01 -1.19332420E-01 -1.60854152E-01  1.14345644E+00  1.00000000E+00
  1.00000000E+00  3.34946043E-02  2.34726953E-01  8.13757326E-01  1.00000000E+00
  1.83473713E-03  1.40373228E-02  6.88426223E-02  2.32184443E-01  4.67941348E-01
  3.62311985E-01 -1.19332420E-01 -1.60854152E-01  1.14345644E+00  1.00000000E+00
  1.00000000E+00  3.34946043E-02  2.34726953E-01  8.13757326E-01  1.00000000E+00
  1.83473713E-03  1.40373228E-02  6.88426223E-02  2.32184443E-01  4.67941348E-01
  3.62311985E-01 -1.19332420E-01 -1.60854152E-01  1.14345644E+00  1.00000000E+00
  1.00000000E+00  3.34946043E-02  2.34726953E-01  8.13757326E-01  1.00000000E+00
  1.83473713E-03  1.40373228E-02  6.88426223E-02  2.32184443E-01  4.67941348E-01
  3.62311985E-01 -1.19332420E-01 -1.60854152E-01  1.14345644E+00  1.00000000E+00
  1.00000000E+00  3.34946043E-02  2.34726953E-01  8.13757326E-01  1.00000000E+00
  3.34946043E-02  2.34726953E-01  8.13757326E-01  1.00000000E+00  3.34946043E-02
  2.34726953E-01  8.13757326E-01  1.00000000E+00  1.83473713E-03  1.40373228E-02
  6.88426223E-02  2.32184443E-01  4.67941348E-01  3.62311985E-01 -1.19332420E-01
 -1.60854152E-01  1.14345644E+00  1.00000000E+00  1.00000000E+00  3.34946043E-02
  2.34726953E-01  8.13757326E-01  1.00000000E+00  3.34946043E-02  2.34726953E-01
  8.13757326E-01  1.00000000E+00  3.34946043E-02  2.34726953E-01  8.13757326E-01
  1.00000000E+00
P(S=P) Contraction coefficients            R   N=         196
  0.00000000E+00  0.00000000E+00  0.00000000E+00  0.00000000E+00  0.00000000E+00
  0.00000000E+00  6.89990666E-02  3.16423961E-01  7.44308291E-01  1.00000000E+00
  0.00000000E+00  0.00000000E+00  0.00000000E+00  0.00000000E+00  0.00000000E+00
  0.00000000E+00  0.00000000E+00  0.00000000E+00  0.00000000E+00  0.00000000E+00
  0.00000000E+00  6.89990666E-02  3.16423961E-01  7.44308291E-01  1.00000000E+00
  0.00000000E+00  0.00000000E+00  0.00000000E+00  0.00000000E+00  0.00000000E+00
  0.00000000E+00  0.00000000E+00  0.00000000E+00  0.00000000E+00  0.00000000E+00
  0.00000000E+00  6.89990666E-02  3.16423961E-01  7.44308291E-01  1.00000000E+00
  0.00000000E+00  0.00000000E+00  0.00000000E+00  0.00000000E+00  0.00000000E+00
  0.00000000E+00  0.00000000E+00  0.00000000E+00  0.00000000E+00  0.00000000E+00
  0.00000000E+00  6.89990666E-02  3.16423961E-01  7.44308291E-01  1.00000000E+00
  0.00000000E+00  0.00000000E+00  0.00000000E+00  0.00000000E+00  0.00000000E+00
  0.00000000E+00  0.00000000E+00  0.00000000E+00  0.00000000E+00  0.00000000E+00
  0.00000000E+00  6.89990666E-02  3.16423961E-01  7.44308291E-01  1.00000000E+00
  0.00000000E+00  0.00000000E+00  0.00000000E+00  0.00000000E+00  0.00000000E+00
  0.00000000E+00  0.00000000E+00  0.00000000E+00  0.00000000E+00  0.00000000E+00
  0.00000000E+00  6.89990666E-02  3.16423961E-01  7.44308291E-01  1.00000000E+00
  0.00000000E+00  0.00000000E+00  0.00000000E+00  0.00000000E+00  0.00000000E+00
  0.00000000E+00  0.00000000E+00  0.00000000E+00  0.00000000E+00  0.00000000E+00
  0.00000000E+00  6.89990666E-02  3.16423961E-01  7.44308291E-01  1.00000000E+00
  0.00000000E+00  0.00000000E+00  0.00000000E+00  0.00000000E+00  0.00000000E+00
  0.00000000E+00  0.00000000E+00  0.00000000E+00  0.00000000E+00  0.00000000E+00
  0.00000000E+00  6.89990666E-02  3.16423961E-01  7.44308291E-01  1.00000000E+00
  0.00000000E+00  0.00000000E+00  0.00000000E+00  0.00000000E+00  0.00000000E+00
  0.00000000E+00  0.00000000E+00  0.00000000E+00  0.00000000E+00  0.00000000E+00
  0.00000000E+00  6.89990666E-02  3.16423961E-01  7.44308291E-01  1.00000000E+00
  0.00000000E+00  0.00000000E+00  0.00000000E+00  0.00000000E+00  0.00000000E+00
  0.00000000E+00  0.00000000E+00  0.00000000E+00  0.00000000E+00  0.00000000E+00
  0.00000000E+00  6.89990666E-02  3.16423961E-01  7.44308291E-01  1.00000000E+00
  0.00000000E+00  0.00000000E+00  0.00000000E+00  0.00000000E+00  0.00000000E+00
  0.00000000E+00  0.00000000E+00  0.00000000E+00  0.00000000E+00  0.00000000E+00
  0.00000000E+00  6.89990666E-02  3.16423961E-01  7.44308291E-01  1.00000000E+00
  0.00000000E+00  0.00000000E+00  0.00000000E+00  0.00000000E+00  0.00000000E+00
  0.00000000E+00  0.00000000E+00  0.00000000E+00  0.00000000E+00  0.00000000E+00
  0.00000000E+00  0.00000000E+00  0.00000000E+00  0.00000000E+00  0.00000000E+00
  0.00000000E+00  0.00000000E+00  0.00000000E+00  0.00000000E+00  6.89990666E-02
  3.16423961E-01  7.44308291E-01  1.00000000E+00  0.00000000E+00  0.00000000E+00
  0.00000000E+00  0.00000000E+00  0.00000000E+00  0.00000000E+00  0.00000000E+00
  0.00000000E+00  0.00000000E+00  0.00000000E+00  0.00000000E+00  0.00000000E+00
  0.00000000E+00
Coordinates of each shell                  R   N=         240
  5.79313421E+00 -7.18968395E-01  5.51003434E-06  5.79313421E+00 -7.18968395E-01
  5.51003434E-06  5.79313421E+00 -7.18968395E-01  5.51003434E-06  5.79313421E+00
 -7.18968395E-01  5.51003434E-06  5.76070558E+00 -2.78056602E+00 -2.65885881E-05
  5.76070558E+00 -2.78056602E+00 -2.65885881E-05  3.56211189E+00  5.48852908E-01
  6.55049409E-05  3.56211189E+00  5.48852908E-01  6.55049409E-05  3.56211189E+00
  5.48852908E-01  6.55049409E-05  3.56211189E+00  5.48852908E-01  6.55049409E-05
  3.59757198E+00  2.61061774E+00 -1.11339871E-04  3.59757198E+00  2.61061774E+00
 -1.11339871E-04  1.11725993E+00 -6.35182225E-01 -3.17614250E-05  1.11725993E+00
 -6.35182225E-01 -3.17614250E-05  1.11725993E+00 -6.35182225E-01 -3.17614250E-05
  1.11725993E+00 -6.35182225E-01 -3.17614250E-05  1.08023464E+00 -2.69677986E+00
 -1.73800693E-04  1.08023464E+00 -2.69677986E+00 -1.73800693E-04 -1.11725992E+00
  6.35182249E-01  3.08434901E-05 -1.11725992E+00  6.35182249E-01  3.08434901E-05
 -1.11725992E+00  6.35182249E-01  3.08434901E-05 -1.11725992E+00  6.35182249E-01
  3.08434901E-05 -1.08023462E+00  2.69677988E+00  1.72968321E-04 -1.08023462E+00
  2.69677988E+00  1.72968321E-04 -3.56211189E+00 -5.48852891E-01 -6.63493406E-05
 -3.56211189E+00 -5.48852891E-01 -6.63493406E-05 -3.56211189E+00 -5.48852891E-01
 -6.63493406E-05 -3.56211189E+00 -5.48852891E-01 -6.63493406E-05 -3.59757198E+00
 -2.61061773E+00  1.10004980E-04 -3.59757198E+00 -2.61061773E+00  1.10004980E-04
 -5.79313421E+00  7.18968403E-01 -5.63593321E-06 -5.79313421E+00  7.18968403E-01
 -5.63593321E-06 -5.79313421E+00  7.18968403E-01 -5.63593321E-06 -5.79313421E+00
  7.18968403E-01 -5.63593321E-06 -5.76070559E+00  2.78056603E+00  2.70552918E-05
 -5.76070559E+00  2.78056603E+00  2.70552918E-05 -8.25009297E+00 -4.73316319E-01
  1.92212732E-04 -8.25009297E+00 -4.73316319E-01  1.92212732E-04 -8.25009297E+00
 -4.73316319E-01  1.92212732E-04 -8.25009297E+00 -4.73316319E-01  1.92212732E-04
 -8.27578410E+00 -2.53592965E+00  1.18950056E-04 -8.27578410E+00 -2.53592965E+00
  1.18950056E-04 -1.04650765E+01  7.82488356E-01  3.75119994E-06 -1.04650765E+01
  7.82488356E-01  3.75119994E-06 -1.04650765E+01  7.82488356E-01  3.75119994E-06
 -1.04650765E+01  7.82488356E-01  3.75119994E-06 -1.04271106E+01  2.84445008E+00
 -4.24399233E-05 -1.04271106E+01  2.84445008E+00 -4.24399233E-05  8.25009297E+00
  4.73316317E-01 -1.92215035E-04  8.25009297E+00  4.73316317E-01 -1.92215035E-04
  8.25009297E+00  4.73316317E-01 -1.92215035E-04  8.25009297E+00  4.73316317E-01
 -1.92215035E-04  8.27578409E+00  2.53592964E+00 -1.19315137E-04  8.27578409E+00
  2.53592964E+00 -1.19315137E-04  1.04650765E+01 -7.82488368E-01 -3.09469881E-06
  1.04650765E+01 -7.82488368E-01 -3.09469881E-06  1.04650765E+01 -7.82488368E-01
 -3.09469881E-06  1.04650765E+01 -7.82488368E-01 -3.09469881E-06  1.04271106E+01
 -2.84445009E+00  4.35566410E-05  1.04271106E+01 -2.84445009E+00  4.35566410E-05
  1.30248701E+01  4.27223004E-01  6.43686929E-05  1.30248701E+01  4.27223004E-01
  6.43686929E-05  1.30248701E+01  4.27223004E-01  6.43686929E-05  1.30248701E+01
  4.27223004E-01  6.43686929E-05  1.41308187E+01 -1.44342245E-01 -1.66271687E+00
  1.41308187E+01 -1.44342245E-01 -1.66271687E+00  1.28922427E+01  2.49268983E+00
  5.89542440E-04  1.28922427E+01  2.49268983E+00  5.89542440E-04  1.41310140E+01
 -1.45110599E-01  1.66248431E+00  1.41310140E+01 -1.45110599E-01  1.66248431E+00
 -1.30248701E+01 -4.27223030E-01 -6.34634758E-05 -1.30248701E+01 -4.27223030E-01
 -6.34634758E-05 -1.30248701E+01 -4.27223030E-01 -6.34634758E-05 -1.30248701E+01
 -4.27223030E-01 -6.34634758E-05 -1.41308184E+01  1.44341875E-01  1.66271810E+00
 -1.41308184E+01  1.44341875E-01  1.66271810E+00 -1.41310143E+01  1.45110905E-01
 -1.66248308E+00 -1.41310143E+01  1.45110905E-01 -1.66248308E+00 -1.28922427E+01
 -2.49268985E+00 -5.89081392E-04 -1.28922427E+01 -2.49268985E+00 -5.89081392E-04
Constraint Structure                       R   N=          84
  5.81280745E+00 -7.85043568E-01 -5.45047719E-06  5.70210728E+00 -2.80401797E+00
 -2.15966870E-05  3.66838325E+00  6.14936748E-01  4.29066186E-06  3.77908342E+00
  2.63391115E+00  1.44117574E-05  1.07221210E+00 -6.99990158E-01 -1.52391519E-06
  9.61511921E-01 -2.71896456E+00 -6.00241808E-06 -1.07221210E+00  6.99990161E-01
 -8.01838951E-07 -9.61511929E-01  2.71896456E+00 -3.19435245E-06 -3.66838325E+00
 -6.14936752E-01  2.42125534E-06 -3.77908341E+00 -2.63391115E+00  1.09358517E-05
 -5.81280745E+00  7.85043564E-01 -6.06824149E-06 -5.70210728E+00  2.80401796E+00
 -2.13568856E-05 -8.40897860E+00 -5.29883332E-01  5.62070486E-06 -8.51967877E+00
 -2.54885774E+00  2.51091867E-05 -1.05534028E+01  8.70096971E-01 -1.13532526E-05
 -1.04427026E+01  2.88907138E+00 -3.77320728E-05  8.40897861E+00  5.29883339E-01
  8.13684397E-06  8.51967878E+00  2.54885774E+00  3.09608464E-05  1.05534028E+01
 -8.70096986E-01 -8.88036754E-06  1.04427026E+01 -2.88907137E+00 -3.11068036E-05
  1.31495740E+01  4.44829929E-01  3.76872236E-06  1.44968170E+01 -7.23443849E-01
 -9.53193340E-01  1.30048850E+01  2.22220344E+00 -9.53159714E-01  1.37508531E+01
  7.49348203E-01  1.90637315E+00 -1.31495740E+01 -4.44829914E-01  7.28364327E-06
 -1.44968171E+01  7.23466794E-01  9.53176068E-01 -1.37508528E+01 -7.49394101E-01
 -1.90635484E+00 -1.30048851E+01 -2.22218049E+00  9.53213582E-01
Num ILSW                                   I              100
ILSW                                       I   N=         100
           0           1           0           0           2           0
           0           0           0           0         402          -1
           5           0           0           0           2           0
           0           0           0           0           1           0
           1           0           0           0           0           0
           0           0      100000           0          -1           0
           0           0           0           0           0           0
           0           0           0           1           0           0
           0           0           1           0           0           0
           0           0           4          41           0           0
           0           0           5           0           0           0
           0           0           0          28           0           0
           0           0           0           0           0           0
           0           0           0           0           0           0
           0           0           0           0           0           0
           0           0           0           0           0           0
           0           0           0           0
Num RLSW                                   I               41
RLSW                                       R   N=          41
  8.00000000E-01  7.20000000E-01  1.00000000E+00  8.10000000E-01  2.00000000E-01
  0.00000000E+00  0.00000000E+00  1.00000000E+00  0.00000000E+00  0.00000000E+00
  0.00000000E+00  0.00000000E+00  1.00000000E+00  0.00000000E+00  0.00000000E+00
  0.00000000E+00  0.00000000E+00  1.00000000E+00  0.00000000E+00  0.00000000E+00
  0.00000000E+00  0.00000000E+00  1.00000000E+00  0.00000000E+00  0.00000000E+00