Title Card Required                                                     
SP        RB3LYP TD-FC                                                6-31G(d)            
Number of atoms                            I               28
Info1-9                                    I   N=           9
          64          64           0           0           0         110
           1         218        -501
Charge                                     I                0
Multiplicity                               I                1
Number of electrons                        I               88
Number of alpha electrons                  I               44
Number of beta electrons                   I               44
Number of basis functions                  I              212
Number of independent functions            I              212
Number of point charges in /Mol/           I                0
Number of translation vectors              I                0
Atomic numbers                             I   N=          28
           6           1           6           1           6           1
           6           1           6           1           6           1
           6           1           6           1           6           1
           6           1           6           1           1           1
           6           1           1           1
Nuclear charges                            R   N=          28
  6.00000000E+00  1.00000000E+00  6.00000000E+00  1.00000000E+00  6.00000000E+00
  1.00000000E+00  6.00000000E+00  1.00000000E+00  6.00000000E+00  1.00000000E+00
  6.00000000E+00  1.00000000E+00  6.00000000E+00  1.00000000E+00  6.00000000E+00
  1.00000000E+00  6.00000000E+00  1.00000000E+00  6.00000000E+00  1.00000000E+00
  6.00000000E+00  1.00000000E+00  1.00000000E+00  1.00000000E+00  6.00000000E+00
  1.00000000E+00  1.00000000E+00  1.00000000E+00
Current cartesian coordinates              R   N=          84
  5.79313464E+00 -7.18968455E-01  5.51800031E-06  5.76070602E+00 -2.78056624E+00
 -2.65884467E-05  3.56211216E+00  5.48852946E-01  6.54979078E-05  3.59757225E+00
  2.61061793E+00 -1.11342664E-04  1.11726002E+00 -6.35182269E-01 -3.17662963E-05
  1.08023473E+00 -2.69678007E+00 -1.73798112E-04 -1.11726002E+00  6.35182270E-01
  3.17645784E-05 -1.08023473E+00  2.69678007E+00  1.73796395E-04 -3.56211216E+00
 -5.48852945E-01 -6.54996257E-05 -3.59757225E+00 -2.61061793E+00  1.11340946E-04
 -5.79313464E+00  7.18968456E-01 -5.51971824E-06 -5.76070601E+00  2.78056624E+00
  2.65867288E-05 -8.25009360E+00 -4.73316360E-01  1.92204045E-04 -8.27578473E+00
 -2.53592985E+00  1.18958260E-04 -1.04650773E+01  7.82488424E-01  3.76055500E-06
 -1.04271114E+01  2.84445030E+00 -4.24432489E-05  8.25009360E+00  4.73316361E-01
 -1.92205763E-04  8.27578473E+00  2.53592985E+00 -1.18959978E-04  1.04650773E+01
 -7.82488423E-01 -3.76227294E-06  1.04271114E+01 -2.84445030E+00  4.24415310E-05
  1.30248711E+01  4.27223029E-01  6.43640721E-05  1.41308198E+01 -1.44342252E-01
 -1.66271700E+00  1.28922437E+01  2.49269003E+00  5.89537862E-04  1.41310151E+01
 -1.45110615E-01  1.66248443E+00 -1.30248711E+01 -4.27223028E-01 -6.43657900E-05
 -1.41308198E+01  1.44342253E-01  1.66271700E+00 -1.41310151E+01  1.45110616E-01
 -1.66248443E+00 -1.28922437E+01 -2.49269003E+00 -5.89539580E-04
Force Field                                I                0
Int Atom Types                             I   N=          28
           0           0           0           0           0           0
           0           0           0           0           0           0
           0           0           0           0           0           0
           0           0           0           0           0           0
           0           0           0           0
MM charges                                 R   N=          28
  0.00000000E+00  0.00000000E+00  0.00000000E+00  0.00000000E+00  0.00000000E+00
  0.00000000E+00  0.00000000E+00  0.00000000E+00  0.00000000E+00  0.00000000E+00
  0.00000000E+00  0.00000000E+00  0.00000000E+00  0.00000000E+00  0.00000000E+00
  0.00000000E+00  0.00000000E+00  0.00000000E+00  0.00000000E+00  0.00000000E+00
  0.00000000E+00  0.00000000E+00  0.00000000E+00  0.00000000E+00  0.00000000E+00
  0.00000000E+00  0.00000000E+00  0.00000000E+00
Integer atomic weights                     I   N=          28
          12           1          12           1          12           1
          12           1          12           1          12           1
          12           1          12           1          12           1
          12           1          12           1           1           1
          12           1           1           1
Real atomic weights                        R   N=          28
  1.20000000E+01  1.00782504E+00  1.20000000E+01  1.00782504E+00  1.20000000E+01
  1.00782504E+00  1.20000000E+01  1.00782504E+00  1.20000000E+01  1.00782504E+00
  1.20000000E+01  1.00782504E+00  1.20000000E+01  1.00782504E+00  1.20000000E+01
  1.00782504E+00  1.20000000E+01  1.00782504E+00  1.20000000E+01  1.00782504E+00
  1.20000000E+01  1.00782504E+00  1.00782504E+00  1.00782504E+00  1.20000000E+01
  1.00782504E+00  1.00782504E+00  1.00782504E+00
Atom fragment info                         I   N=          28
           0           0           0           0           0           0
           0           0           0           0           0           0
           0           0           0           0           0           0
           0           0           0           0           0           0
           0           0           0           0
Atom residue num                           I   N=          28
           0           0           0           0           0           0
           0           0           0           0           0           0
           0           0           0           0           0           0
           0           0           0           0           0           0
           0           0           0           0
Nuclear spins                              I   N=          28
           0           1           0           1           0           1
           0           1           0           1           0           1
           0           1           0           1           0           1
           0           1           0           1           1           1
           0           1           1           1
Nuclear ZEff                               R   N=          28
 -3.60000000E+00 -1.00000000E+00 -3.60000000E+00 -1.00000000E+00 -3.60000000E+00
 -1.00000000E+00 -3.60000000E+00 -1.00000000E+00 -3.60000000E+00 -1.00000000E+00
 -3.60000000E+00 -1.00000000E+00 -3.60000000E+00 -1.00000000E+00 -3.60000000E+00
 -1.00000000E+00 -3.60000000E+00 -1.00000000E+00 -3.60000000E+00 -1.00000000E+00
 -3.60000000E+00 -1.00000000E+00 -1.00000000E+00 -1.00000000E+00 -3.60000000E+00
 -1.00000000E+00 -1.00000000E+00 -1.00000000E+00
Nuclear ZNuc                               R   N=          28
  6.00000000E+00  1.00000000E+00  6.00000000E+00  1.00000000E+00  6.00000000E+00
  1.00000000E+00  6.00000000E+00  1.00000000E+00  6.00000000E+00  1.00000000E+00
  6.00000000E+00  1.00000000E+00  6.00000000E+00  1.00000000E+00  6.00000000E+00
  1.00000000E+00  6.00000000E+00  1.00000000E+00  6.00000000E+00  1.00000000E+00
  6.00000000E+00  1.00000000E+00  1.00000000E+00  1.00000000E+00  6.00000000E+00
  1.00000000E+00  1.00000000E+00  1.00000000E+00
Nuclear QMom                               R   N=          28
  0.00000000E+00  0.00000000E+00  0.00000000E+00  0.00000000E+00  0.00000000E+00
  0.00000000E+00  0.00000000E+00  0.00000000E+00  0.00000000E+00  0.00000000E+00
  0.00000000E+00  0.00000000E+00  0.00000000E+00  0.00000000E+00  0.00000000E+00
  0.00000000E+00  0.00000000E+00  0.00000000E+00  0.00000000E+00  0.00000000E+00
  0.00000000E+00  0.00000000E+00  0.00000000E+00  0.00000000E+00  0.00000000E+00
  0.00000000E+00  0.00000000E+00  0.00000000E+00
Nuclear GFac                               R   N=          28
  0.00000000E+00  2.79284600E+00  0.00000000E+00  2.79284600E+00  0.00000000E+00
  2.79284600E+00  0.00000000E+00  2.79284600E+00  0.00000000E+00  2.79284600E+00
  0.00000000E+00  2.79284600E+00  0.00000000E+00  2.79284600E+00  0.00000000E+00
  2.79284600E+00  0.00000000E+00  2.79284600E+00  0.00000000E+00  2.79284600E+00
  0.00000000E+00  2.79284600E+00  2.79284600E+00  2.79284600E+00  0.00000000E+00
  2.79284600E+00  2.79284600E+00  2.79284600E+00
MicOpt                                     I   N=          28
          -1          -1          -1          -1          -1          -1
          -1          -1          -1          -1          -1          -1
          -1          -1          -1          -1          -1          -1
          -1          -1          -1          -1          -1          -1
          -1          -1          -1          -1
SymInf integers                            I   N=          26
           2           2           1           1           1          -1
          -1          -1           0           0           0           0
           0           0           0           0           0           0
           0           0           0           0           0           0
           0           0
RotTr to input orientation                 R   N=          12
  1.00000000E+00  0.00000000E+00  0.00000000E+00  0.00000000E+00  1.00000000E+00
  0.00000000E+00  0.00000000E+00  0.00000000E+00  1.00000000E+00  1.50319131E-09
  4.29483217E-10 -8.58966421E-10
Number of contracted shells                I               80
Number of primitive shells                 I              196
Pure/Cartesian d shells                    I                1
Pure/Cartesian f shells                    I                0
Highest angular momentum                   I                2
Largest degree of contraction              I                6
Shell types                                I   N=          80
           0          -1          -1           2           0           0
           0          -1          -1           2           0           0
           0          -1          -1           2           0           0
           0          -1          -1           2           0           0
           0          -1          -1           2           0           0
           0          -1          -1           2           0           0
           0          -1          -1           2           0           0
           0          -1          -1           2           0           0
           0          -1          -1           2           0           0
           0          -1          -1           2           0           0
           0          -1          -1           2           0           0
           0           0           0           0           0          -1
          -1           2           0           0           0           0
           0           0
Number of primitives per shell             I   N=          80
           6           3           1           1           3           1
           6           3           1           1           3           1
           6           3           1           1           3           1
           6           3           1           1           3           1
           6           3           1           1           3           1
           6           3           1           1           3           1
           6           3           1           1           3           1
           6           3           1           1           3           1
           6           3           1           1           3           1
           6           3           1           1           3           1
           6           3           1           1           3           1
           3           1           3           1           6           3
           1           1           3           1           3           1
           3           1
Shell to atom map                          I   N=          80
           1           1           1           1           2           2
           3           3           3           3           4           4
           5           5           5           5           6           6
           7           7           7           7           8           8
           9           9           9           9          10          10
          11          11          11          11          12          12
          13          13          13          13          14          14
          15          15          15          15          16          16
          17          17          17          17          18          18
          19          19          19          19          20          20
          21          21          21          21          22          22
          23          23          24          24          25          25
          25          25          26          26          27          27
          28          28
Primitive exponents                        R   N=         196
  3.04752488E+03  4.57369518E+02  1.03948685E+02  2.92101553E+01  9.28666296E+00
  3.16392696E+00  7.86827235E+00  1.88128854E+00  5.44249258E-01  1.68714478E-01
  8.00000000E-01  1.87311370E+01  2.82539436E+00  6.40121692E-01  1.61277759E-01
  3.04752488E+03  4.57369518E+02  1.03948685E+02  2.92101553E+01  9.28666296E+00
  3.16392696E+00  7.86827235E+00  1.88128854E+00  5.44249258E-01  1.68714478E-01
  8.00000000E-01  1.87311370E+01  2.82539436E+00  6.40121692E-01  1.61277759E-01
  3.04752488E+03  4.57369518E+02  1.03948685E+02  2.92101553E+01  9.28666296E+00
  3.16392696E+00  7.86827235E+00  1.88128854E+00  5.44249258E-01  1.68714478E-01
  8.00000000E-01  1.87311370E+01  2.82539436E+00  6.40121692E-01  1.61277759E-01
  3.04752488E+03  4.57369518E+02  1.03948685E+02  2.92101553E+01  9.28666296E+00
  3.16392696E+00  7.86827235E+00  1.88128854E+00  5.44249258E-01  1.68714478E-01
  8.00000000E-01  1.87311370E+01  2.82539436E+00  6.40121692E-01  1.61277759E-01
  3.04752488E+03  4.57369518E+02  1.03948685E+02  2.92101553E+01  9.28666296E+00
  3.16392696E+00  7.86827235E+00  1.88128854E+00  5.44249258E-01  1.68714478E-01
  8.00000000E-01  1.87311370E+01  2.82539436E+00  6.40121692E-01  1.61277759E-01
  3.04752488E+03  4.57369518E+02  1.03948685E+02  2.92101553E+01  9.28666296E+00
  3.16392696E+00  7.86827235E+00  1.88128854E+00  5.44249258E-01  1.68714478E-01
  8.00000000E-01  1.87311370E+01  2.82539436E+00  6.40121692E-01  1.61277759E-01
  3.04752488E+03  4.57369518E+02  1.03948685E+02  2.92101553E+01  9.28666296E+00
  3.16392696E+00  7.86827235E+00  1.88128854E+00  5.44249258E-01  1.68714478E-01
  8.00000000E-01  1.87311370E+01  2.82539436E+00  6.40121692E-01  1.61277759E-01
  3.04752488E+03  4.57369518E+02  1.03948685E+02  2.92101553E+01  9.28666296E+00
  3.16392696E+00  7.86827235E+00  1.88128854E+00  5.44249258E-01  1.68714478E-01
  8.00000000E-01  1.87311370E+01  2.82539436E+00  6.40121692E-01  1.61277759E-01
  3.04752488E+03  4.57369518E+02  1.03948685E+02  2.92101553E+01  9.28666296E+00
  3.16392696E+00  7.86827235E+00  1.88128854E+00  5.44249258E-01  1.68714478E-01
  8.00000000E-01  1.87311370E+01  2.82539436E+00  6.40121692E-01  1.61277759E-01
  3.04752488E+03  4.57369518E+02  1.03948685E+02  2.92101553E+01  9.28666296E+00
  3.16392696E+00  7.86827235E+00  1.88128854E+00  5.44249258E-01  1.68714478E-01
  8.00000000E-01  1.87311370E+01  2.82539436E+00  6.40121692E-01  1.61277759E-01
  3.04752488E+03  4.57369518E+02  1.03948685E+02  2.92101553E+01  9.28666296E+00
  3.16392696E+00  7.86827235E+00  1.88128854E+00  5.44249258E-01  1.68714478E-01
  8.00000000E-01  1.87311370E+01  2.82539436E+00  6.40121692E-01  1.61277759E-01
  1.87311370E+01  2.82539436E+00  6.40121692E-01  1.61277759E-01  1.87311370E+01
  2.82539436E+00  6.40121692E-01  1.61277759E-01  3.04752488E+03  4.57369518E+02
  1.03948685E+02  2.92101553E+01  9.28666296E+00  3.16392696E+00  7.86827235E+00
  1.88128854E+00  5.44249258E-01  1.68714478E-01  8.00000000E-01  1.87311370E+01
  2.82539436E+00  6.40121692E-01  1.61277759E-01  1.87311370E+01  2.82539436E+00
  6.40121692E-01  1.61277759E-01  1.87311370E+01  2.82539436E+00  6.40121692E-01
  1.61277759E-01
Contraction coefficients                   R   N=         196
  1.83473713E-03  1.40373228E-02  6.88426223E-02  2.32184443E-01  4.67941348E-01
  3.62311985E-01 -1.19332420E-01 -1.60854152E-01  1.14345644E+00  1.00000000E+00
  1.00000000E+00  3.34946043E-02  2.34726953E-01  8.13757326E-01  1.00000000E+00
  1.83473713E-03  1.40373228E-02  6.88426223E-02  2.32184443E-01  4.67941348E-01
  3.62311985E-01 -1.19332420E-01 -1.60854152E-01  1.14345644E+00  1.00000000E+00
  1.00000000E+00  3.34946043E-02  2.34726953E-01  8.13757326E-01  1.00000000E+00
  1.83473713E-03  1.40373228E-02  6.88426223E-02  2.32184443E-01  4.67941348E-01
  3.62311985E-01 -1.19332420E-01 -1.60854152E-01  1.14345644E+00  1.00000000E+00
  1.00000000E+00  3.34946043E-02  2.34726953E-01  8.13757326E-01  1.00000000E+00
  1.83473713E-03  1.40373228E-02  6.88426223E-02  2.32184443E-01  4.67941348E-01
  3.62311985E-01 -1.19332420E-01 -1.60854152E-01  1.14345644E+00  1.00000000E+00
  1.00000000E+00  3.34946043E-02  2.34726953E-01  8.13757326E-01  1.00000000E+00
  1.83473713E-03  1.40373228E-02  6.88426223E-02  2.32184443E-01  4.67941348E-01
  3.62311985E-01 -1.19332420E-01 -1.60854152E-01  1.14345644E+00  1.00000000E+00
  1.00000000E+00  3.34946043E-02  2.34726953E-01  8.13757326E-01  1.00000000E+00
  1.83473713E-03  1.40373228E-02  6.88426223E-02  2.32184443E-01  4.67941348E-01
  3.62311985E-01 -1.19332420E-01 -1.60854152E-01  1.14345644E+00  1.00000000E+00
  1.00000000E+00  3.34946043E-02  2.34726953E-01  8.13757326E-01  1.00000000E+00
  1.83473713E-03  1.40373228E-02  6.88426223E-02  2.32184443E-01  4.67941348E-01
  3.62311985E-01 -1.19332420E-01 -1.60854152E-01  1.14345644E+00  1.00000000E+00
  1.00000000E+00  3.34946043E-02  2.34726953E-01  8.13757326E-01  1.00000000E+00
  1.83473713E-03  1.40373228E-02  6.88426223E-02  2.32184443E-01  4.67941348E-01
  3.62311985E-01 -1.19332420E-01 -1.60854152E-01  1.14345644E+00  1.00000000E+00
  1.00000000E+00  3.34946043E-02  2.34726953E-01  8.13757326E-01  1.00000000E+00
  1.83473713E-03  1.40373228E-02  6.88426223E-02  2.32184443E-01  4.67941348E-01
  3.62311985E-01 -1.19332420E-01 -1.60854152E-01  1.14345644E+00  1.00000000E+00
  1.00000000E+00  3.34946043E-02  2.34726953E-01  8.13757326E-01  1.00000000E+00
  1.83473713E-03  1.40373228E-02  6.88426223E-02  2.32184443E-01  4.67941348E-01
  3.62311985E-01 -1.19332420E-01 -1.60854152E-01  1.14345644E+00  1.00000000E+00
  1.00000000E+00  3.34946043E-02  2.34726953E-01  8.13757326E-01  1.00000000E+00
  1.83473713E-03  1.40373228E-02  6.88426223E-02  2.32184443E-01  4.67941348E-01
  3.62311985E-01 -1.19332420E-01 -1.60854152E-01  1.14345644E+00  1.00000000E+00
  1.00000000E+00  3.34946043E-02  2.34726953E-01  8.13757326E-01  1.00000000E+00
  3.34946043E-02  2.34726953E-01  8.13757326E-01  1.00000000E+00  3.34946043E-02
  2.34726953E-01  8.13757326E-01  1.00000000E+00  1.83473713E-03  1.40373228E-02
  6.88426223E-02  2.32184443E-01  4.67941348E-01  3.62311985E-01 -1.19332420E-01
 -1.60854152E-01  1.14345644E+00  1.00000000E+00  1.00000000E+00  3.34946043E-02
  2.34726953E-01  8.13757326E-01  1.00000000E+00  3.34946043E-02  2.34726953E-01
  8.13757326E-01  1.00000000E+00  3.34946043E-02  2.34726953E-01  8.13757326E-01
  1.00000000E+00
P(S=P) Contraction coefficients            R   N=         196
  0.00000000E+00  0.00000000E+00  0.00000000E+00  0.00000000E+00  0.00000000E+00
  0.00000000E+00  6.89990666E-02  3.16423961E-01  7.44308291E-01  1.00000000E+00
  0.00000000E+00  0.00000000E+00  0.00000000E+00  0.00000000E+00  0.00000000E+00
  0.00000000E+00  0.00000000E+00  0.00000000E+00  0.00000000E+00  0.00000000E+00
  0.00000000E+00  6.89990666E-02  3.16423961E-01  7.44308291E-01  1.00000000E+00
  0.00000000E+00  0.00000000E+00  0.00000000E+00  0.00000000E+00  0.00000000E+00
  0.00000000E+00  0.00000000E+00  0.00000000E+00  0.00000000E+00  0.00000000E+00
  0.00000000E+00  6.89990666E-02  3.16423961E-01  7.44308291E-01  1.00000000E+00
  0.00000000E+00  0.00000000E+00  0.00000000E+00  0.00000000E+00  0.00000000E+00
  0.00000000E+00  0.00000000E+00  0.00000000E+00  0.00000000E+00  0.00000000E+00
  0.00000000E+00  6.89990666E-02  3.16423961E-01  7.44308291E-01  1.00000000E+00
  0.00000000E+00  0.00000000E+00  0.00000000E+00  0.00000000E+00  0.00000000E+00
  0.00000000E+00  0.00000000E+00  0.00000000E+00  0.00000000E+00  0.00000000E+00
  0.00000000E+00  6.89990666E-02  3.16423961E-01  7.44308291E-01  1.00000000E+00
  0.00000000E+00  0.00000000E+00  0.00000000E+00  0.00000000E+00  0.00000000E+00
  0.00000000E+00  0.00000000E+00  0.00000000E+00  0.00000000E+00  0.00000000E+00
  0.00000000E+00  6.89990666E-02  3.16423961E-01  7.44308291E-01  1.00000000E+00
  0.00000000E+00  0.00000000E+00  0.00000000E+00  0.00000000E+00  0.00000000E+00
  0.00000000E+00  0.00000000E+00  0.00000000E+00  0.00000000E+00  0.00000000E+00
  0.00000000E+00  6.89990666E-02  3.16423961E-01  7.44308291E-01  1.00000000E+00
  0.00000000E+00  0.00000000E+00  0.00000000E+00  0.00000000E+00  0.00000000E+00
  0.00000000E+00  0.00000000E+00  0.00000000E+00  0.00000000E+00  0.00000000E+00
  0.00000000E+00  6.89990666E-02  3.16423961E-01  7.44308291E-01  1.00000000E+00
  0.00000000E+00  0.00000000E+00  0.00000000E+00  0.00000000E+00  0.00000000E+00
  0.00000000E+00  0.00000000E+00  0.00000000E+00  0.00000000E+00  0.00000000E+00
  0.00000000E+00  6.89990666E-02  3.16423961E-01  7.44308291E-01  1.00000000E+00
  0.00000000E+00  0.00000000E+00  0.00000000E+00  0.00000000E+00  0.00000000E+00
  0.00000000E+00  0.00000000E+00  0.00000000E+00  0.00000000E+00  0.00000000E+00
  0.00000000E+00  6.89990666E-02  3.16423961E-01  7.44308291E-01  1.00000000E+00
  0.00000000E+00  0.00000000E+00  0.00000000E+00  0.00000000E+00  0.00000000E+00
  0.00000000E+00  0.00000000E+00  0.00000000E+00  0.00000000E+00  0.00000000E+00
  0.00000000E+00  6.89990666E-02  3.16423961E-01  7.44308291E-01  1.00000000E+00
  0.00000000E+00  0.00000000E+00  0.00000000E+00  0.00000000E+00  0.00000000E+00
  0.00000000E+00  0.00000000E+00  0.00000000E+00  0.00000000E+00  0.00000000E+00
  0.00000000E+00  0.00000000E+00  0.00000000E+00  0.00000000E+00  0.00000000E+00
  0.00000000E+00  0.00000000E+00  0.00000000E+00  0.00000000E+00  6.89990666E-02
  3.16423961E-01  7.44308291E-01  1.00000000E+00  0.00000000E+00  0.00000000E+00
  0.00000000E+00  0.00000000E+00  0.00000000E+00  0.00000000E+00  0.00000000E+00
  0.00000000E+00  0.00000000E+00  0.00000000E+00  0.00000000E+00  0.00000000E+00
  0.00000000E+00
Coordinates of each shell                  R   N=         240
  5.79313464E+00 -7.18968455E-01  5.51885927E-06  5.79313464E+00 -7.18968455E-01
  5.51885927E-06  5.79313464E+00 -7.18968455E-01  5.51885927E-06  5.79313464E+00
 -7.18968455E-01  5.51885927E-06  5.76070602E+00 -2.78056624E+00 -2.65875877E-05
  5.76070602E+00 -2.78056624E+00 -2.65875877E-05  3.56211216E+00  5.48852946E-01
  6.54987667E-05  3.56211216E+00  5.48852946E-01  6.54987667E-05  3.56211216E+00
  5.48852946E-01  6.54987667E-05  3.56211216E+00  5.48852946E-01  6.54987667E-05
  3.59757225E+00  2.61061793E+00 -1.11341805E-04  3.59757225E+00  2.61061793E+00
 -1.11341805E-04  1.11726002E+00 -6.35182269E-01 -3.17654373E-05  1.11726002E+00
 -6.35182269E-01 -3.17654373E-05  1.11726002E+00 -6.35182269E-01 -3.17654373E-05
  1.11726002E+00 -6.35182269E-01 -3.17654373E-05  1.08023473E+00 -2.69678007E+00
 -1.73797253E-04  1.08023473E+00 -2.69678007E+00 -1.73797253E-04 -1.11726002E+00
  6.35182269E-01  3.17654373E-05 -1.11726002E+00  6.35182269E-01  3.17654373E-05
 -1.11726002E+00  6.35182269E-01  3.17654373E-05 -1.11726002E+00  6.35182269E-01
  3.17654373E-05 -1.08023473E+00  2.69678007E+00  1.73797253E-04 -1.08023473E+00
  2.69678007E+00  1.73797253E-04 -3.56211216E+00 -5.48852946E-01 -6.54987667E-05
 -3.56211216E+00 -5.48852946E-01 -6.54987667E-05 -3.56211216E+00 -5.48852946E-01
 -6.54987667E-05 -3.56211216E+00 -5.48852946E-01 -6.54987667E-05 -3.59757225E+00
 -2.61061793E+00  1.11341805E-04 -3.59757225E+00 -2.61061793E+00  1.11341805E-04
 -5.79313464E+00  7.18968455E-01 -5.51885927E-06 -5.79313464E+00  7.18968455E-01
 -5.51885927E-06 -5.79313464E+00  7.18968455E-01 -5.51885927E-06 -5.79313464E+00
  7.18968455E-01 -5.51885927E-06 -5.76070602E+00  2.78056624E+00  2.65875877E-05
 -5.76070602E+00  2.78056624E+00  2.65875877E-05 -8.25009360E+00 -4.73316360E-01
  1.92204904E-04 -8.25009360E+00 -4.73316360E-01  1.92204904E-04 -8.25009360E+00
 -4.73316360E-01  1.92204904E-04 -8.25009360E+00 -4.73316360E-01  1.92204904E-04
 -8.27578473E+00 -2.53592985E+00  1.18959119E-04 -8.27578473E+00 -2.53592985E+00
  1.18959119E-04 -1.04650773E+01  7.82488424E-01  3.76141397E-06 -1.04650773E+01
  7.82488424E-01  3.76141397E-06 -1.04650773E+01  7.82488424E-01  3.76141397E-06
 -1.04650773E+01  7.82488424E-01  3.76141397E-06 -1.04271114E+01  2.84445030E+00
 -4.24423900E-05 -1.04271114E+01  2.84445030E+00 -4.24423900E-05  8.25009360E+00
  4.73316360E-01 -1.92204904E-04  8.25009360E+00  4.73316360E-01 -1.92204904E-04
  8.25009360E+00  4.73316360E-01 -1.92204904E-04  8.25009360E+00  4.73316360E-01
 -1.92204904E-04  8.27578473E+00  2.53592985E+00 -1.18959119E-04  8.27578473E+00
  2.53592985E+00 -1.18959119E-04  1.04650773E+01 -7.82488424E-01 -3.76141397E-06
  1.04650773E+01 -7.82488424E-01 -3.76141397E-06  1.04650773E+01 -7.82488424E-01
 -3.76141397E-06  1.04650773E+01 -7.82488424E-01 -3.76141397E-06  1.04271114E+01
 -2.84445030E+00  4.24423900E-05  1.04271114E+01 -2.84445030E+00  4.24423900E-05
  1.30248711E+01  4.27223029E-01  6.43649311E-05  1.30248711E+01  4.27223029E-01
  6.43649311E-05  1.30248711E+01  4.27223029E-01  6.43649311E-05  1.30248711E+01
  4.27223029E-01  6.43649311E-05  1.41308198E+01 -1.44342252E-01 -1.66271700E+00
  1.41308198E+01 -1.44342252E-01 -1.66271700E+00  1.28922437E+01  2.49269003E+00
  5.89538721E-04  1.28922437E+01  2.49269003E+00  5.89538721E-04  1.41310151E+01
 -1.45110615E-01  1.66248443E+00  1.41310151E+01 -1.45110615E-01  1.66248443E+00
 -1.30248711E+01 -4.27223029E-01 -6.43649311E-05 -1.30248711E+01 -4.27223029E-01
 -6.43649311E-05 -1.30248711E+01 -4.27223029E-01 -6.43649311E-05 -1.30248711E+01
 -4.27223029E-01 -6.43649311E-05 -1.41308198E+01  1.44342252E-01  1.66271700E+00
 -1.41308198E+01  1.44342252E-01  1.66271700E+00 -1.41310151E+01  1.45110615E-01
 -1.66248443E+00 -1.41310151E+01  1.45110615E-01 -1.66248443E+00 -1.28922437E+01
 -2.49269003E+00 -5.89538721E-04 -1.28922437E+01 -2.49269003E+00 -5.89538721E-04
Constraint Structure                       R   N=          84
  5.79313464E+00 -7.18968455E-01  5.51885927E-06  5.76070602E+00 -2.78056624E+00
 -2.65875877E-05  3.56211216E+00  5.48852946E-01  6.54987667E-05  3.59757225E+00
  2.61061793E+00 -1.11341805E-04  1.11726002E+00 -6.35182269E-01 -3.17654373E-05
  1.08023473E+00 -2.69678007E+00 -1.73797253E-04 -1.11726002E+00  6.35182269E-01
  3.17654373E-05 -1.08023473E+00  2.69678007E+00  1.73797253E-04 -3.56211216E+00
 -5.48852946E-01 -6.54987667E-05 -3.59757225E+00 -2.61061793E+00  1.11341805E-04
 -5.79313464E+00  7.18968455E-01 -5.51885927E-06 -5.76070602E+00  2.78056624E+00
  2.65875877E-05 -8.25009360E+00 -4.73316360E-01  1.92204904E-04 -8.27578473E+00
 -2.53592985E+00  1.18959119E-04 -1.04650773E+01  7.82488424E-01  3.76141397E-06
 -1.04271114E+01  2.84445030E+00 -4.24423900E-05  8.25009360E+00  4.73316360E-01
 -1.92204904E-04  8.27578473E+00  2.53592985E+00 -1.18959119E-04  1.04650773E+01
 -7.82488424E-01 -3.76141397E-06  1.04271114E+01 -2.84445030E+00  4.24423900E-05
  1.30248711E+01  4.27223029E-01  6.43649311E-05  1.41308198E+01 -1.44342252E-01
 -1.66271700E+00  1.28922437E+01  2.49269003E+00  5.89538721E-04  1.41310151E+01
 -1.45110615E-01  1.66248443E+00 -1.30248711E+01 -4.27223029E-01 -6.43649311E-05
 -1.41308198E+01  1.44342252E-01  1.66271700E+00 -1.41310151E+01  1.45110615E-01
 -1.66248443E+00 -1.28922437E+01 -2.49269003E+00 -5.89538721E-04
Num ILSW                                   I              100
ILSW                                       I   N=         100
           0           1           0           0           2           0
           0           0           0           0         402          -1
           0           0           0           0           0           0
           0           0           0           0           0           0
           1           0           0           0           0           0
           0           0      100000           0          -1           0
           0           0           0           0           0           0
           0           0           0           1           0           0
           0           0           1           0           0           0
           0           0           4          41           0           0
           0           0           5           0           0           0
           0           0           0          28           0           0
           0           0           0           0           0           0
           0           0           0           0           0           0
           0           0           0           0           0           0
           0           0           0           0           0           0
           0           0           0           0
Num RLSW                                   I               41
RLSW                                       R   N=          41
  8.00000000E-01  7.20000000E-01  1.00000000E+00  8.10000000E-01  2.00000000E-01
  0.00000000E+00  0.00000000E+00  1.00000000E+00  0.00000000E+00  0.00000000E+00
  0.00000000E+00  0.00000000E+00  1.00000000E+00  0.00000000E+00  0.00000000E+00
  0.00000000E+00  0.00000000E+00  1.00000000E+00  0.00000000E+00  0.00000000E+00
  0.00000000E+00  0.00000000E+00  1.00000000E+00  0.00000000E+00  0.00000000E+00