 Entering Gaussian System, Link 0=/opt/app/gaussian09/e01/g09/g09.exec
 Input=mini_5_pp_opt.gjf
 Output=mini_5_pp_opt.log
 Initial command:
 /opt/app/gaussian09/e01/g09/l1.exe "./Gau-7757.inp" -scrdir="./"
 Entering Link 1 = /opt/app/gaussian09/e01/g09/l1.exe PID=      7762.
  
 Copyright (c) 1988,1990,1992,1993,1995,1998,2003,2009,2015,
            Gaussian, Inc.  All Rights Reserved.
  
 This is part of the Gaussian(R) 09 program.  It is based on
 the Gaussian(R) 03 system (copyright 2003, Gaussian, Inc.),
 the Gaussian(R) 98 system (copyright 1998, Gaussian, Inc.),
 the Gaussian(R) 94 system (copyright 1995, Gaussian, Inc.),
 the Gaussian 92(TM) system (copyright 1992, Gaussian, Inc.),
 the Gaussian 90(TM) system (copyright 1990, Gaussian, Inc.),
 the Gaussian 88(TM) system (copyright 1988, Gaussian, Inc.),
 the Gaussian 86(TM) system (copyright 1986, Carnegie Mellon
 University), and the Gaussian 82(TM) system (copyright 1983,
 Carnegie Mellon University). Gaussian is a federally registered
 trademark of Gaussian, Inc.
  
 This software contains proprietary and confidential information,
 including trade secrets, belonging to Gaussian, Inc.
  
 This software is provided under written license and may be
 used, copied, transmitted, or stored only in accord with that
 written license.
  
 The following legend is applicable only to US Government
 contracts under FAR:
  
                    RESTRICTED RIGHTS LEGEND
  
 Use, reproduction and disclosure by the US Government is
 subject to restrictions as set forth in subparagraphs (a)
 and (c) of the Commercial Computer Software - Restricted
 Rights clause in FAR 52.227-19.
  
 Gaussian, Inc.
 340 Quinnipiac St., Bldg. 40, Wallingford CT 06492
  
  
 ---------------------------------------------------------------
 Warning -- This program may not be used in any manner that
 competes with the business of Gaussian, Inc. or will provide
 assistance to any competitor of Gaussian, Inc.  The licensee
 of this program is prohibited from giving any competitor of
 Gaussian, Inc. access to this program.  By using this program,
 the user acknowledges that Gaussian, Inc. is engaged in the
 business of creating and licensing software in the field of
 computational chemistry and represents and warrants to the
 licensee that it is not a competitor of Gaussian, Inc. and that
 it will not use this program in any manner prohibited above.
 ---------------------------------------------------------------
  

 Cite this work as:
 Gaussian 09, Revision E.01,
 M. J. Frisch, G. W. Trucks, H. B. Schlegel, G. E. Scuseria, 
 M. A. Robb, J. R. Cheeseman, G. Scalmani, V. Barone, B. Mennucci, 
 G. A. Petersson, H. Nakatsuji, M. Caricato, X. Li, H. P. Hratchian, 
 A. F. Izmaylov, J. Bloino, G. Zheng, J. L. Sonnenberg, M. Hada, 
 M. Ehara, K. Toyota, R. Fukuda, J. Hasegawa, M. Ishida, T. Nakajima, 
 Y. Honda, O. Kitao, H. Nakai, T. Vreven, J. A. Montgomery, Jr., 
 J. E. Peralta, F. Ogliaro, M. Bearpark, J. J. Heyd, E. Brothers, 
 K. N. Kudin, V. N. Staroverov, T. Keith, R. Kobayashi, J. Normand, 
 K. Raghavachari, A. Rendell, J. C. Burant, S. S. Iyengar, J. Tomasi, 
 M. Cossi, N. Rega, J. M. Millam, M. Klene, J. E. Knox, J. B. Cross, 
 V. Bakken, C. Adamo, J. Jaramillo, R. Gomperts, R. E. Stratmann, 
 O. Yazyev, A. J. Austin, R. Cammi, C. Pomelli, J. W. Ochterski, 
 R. L. Martin, K. Morokuma, V. G. Zakrzewski, G. A. Voth, 
 P. Salvador, J. J. Dannenberg, S. Dapprich, A. D. Daniels, 
 O. Farkas, J. B. Foresman, J. V. Ortiz, J. Cioslowski, 
 and D. J. Fox, Gaussian, Inc., Wallingford CT, 2013.
 
 ******************************************
 Gaussian 09:  ES64L-G09RevE.01 30-Nov-2015
                 7-Jun-2021 
 ******************************************
 %chk=mini_5_pp_opt.chk
 -----------------------------------------------------
 #p opt b3lyp/6-31g(d) geom=connectivity int=ultrafine
 -----------------------------------------------------
 1/14=-1,18=20,19=15,26=4,38=1,57=2/1,3;
 2/9=110,12=2,17=6,18=5,40=1/2;
 3/5=1,6=6,7=1,11=2,16=1,25=1,30=1,71=1,74=-5,75=-5/1,2,3;
 4//1;
 5/5=2,38=5/2;
 6/7=2,8=2,9=2,10=2,28=1/1;
 7//1,2,3,16;
 1/14=-1,18=20,19=15,26=4/3(2);
 2/9=110/2;
 99//99;
 2/9=110/2;
 3/5=1,6=6,7=1,11=2,16=1,25=1,30=1,71=1,74=-5,75=-5/1,2,3;
 4/5=5,16=3,69=1/1;
 5/5=2,38=5/2;
 7//1,2,3,16;
 1/14=-1,18=20,19=15,26=4/3(-5);
 2/9=110/2;
 6/7=2,8=2,9=2,10=2,19=2,28=1/1;
 99/9=1/99;
 Leave Link    1 at Mon Jun  7 00:33:54 2021, MaxMem=           0 cpu:         0.0
 (Enter /opt/app/gaussian09/e01/g09/l101.exe)
 -------------------
 Title Card Required
 -------------------
 Symbolic Z-matrix:
 Charge =  0 Multiplicity = 1
 C                    -2.83267  -1.83765   0.13808 
 H                    -3.8871   -1.84173   0.31995 
 C                    -2.16181  -0.66228   0.06734 
 H                    -1.10739  -0.6582   -0.11453 
 C                    -2.91705   0.66751   0.24871 
 H                    -3.97147   0.66343   0.43058 
 C                    -2.24619   1.84288   0.17796 
 H                    -1.19177   1.84696  -0.00391 
 C                    -3.00142   3.17266   0.35933 
 H                    -4.05584   3.16858   0.54121 
 C                    -2.33056   4.34804   0.28858 
 H                    -1.27614   4.35212   0.1067 
 C                    -3.0858    5.67782   0.46996 
 H                    -4.14022   5.67374   0.65184 
 C                    -2.41494   6.8532    0.3992 
 H                    -1.36052   6.85728   0.21731 
 C                    -2.07744  -3.16744  -0.04328 
 H                    -1.02301  -3.16336  -0.22514 
 C                    -2.7483   -4.34281   0.02746 
 H                    -3.80272  -4.34689   0.20932 
 C                    -1.99306  -5.67259  -0.1539 
 H                    -2.65064  -6.40092  -0.58054 
 H                    -1.15713  -5.52213  -0.80466 
 H                    -1.64666  -6.01867   0.79749 
 C                    -3.17017   8.18298   0.58058 
 H                    -2.51258   8.91131   1.0072 
 H                    -3.5166    8.52905  -0.3708 
 H                    -4.00608   8.03252   1.23136 
 
 NAtoms=     28 NQM=       28 NQMF=       0 NMMI=      0 NMMIF=      0
                NMic=       0 NMicF=      0.
                    Isotopes and Nuclear Properties:
 (Nuclear quadrupole moments (NQMom) in fm**2, nuclear magnetic moments (NMagM)
  in nuclear magnetons)

  Atom         1           2           3           4           5           6           7           8           9          10
 IAtWgt=          12           1          12           1          12           1          12           1          12           1
 AtmWgt=  12.0000000   1.0078250  12.0000000   1.0078250  12.0000000   1.0078250  12.0000000   1.0078250  12.0000000   1.0078250
 NucSpn=           0           1           0           1           0           1           0           1           0           1
 AtZEff=   0.0000000   0.0000000   0.0000000   0.0000000   0.0000000   0.0000000   0.0000000   0.0000000   0.0000000   0.0000000
 NQMom=    0.0000000   0.0000000   0.0000000   0.0000000   0.0000000   0.0000000   0.0000000   0.0000000   0.0000000   0.0000000
 NMagM=    0.0000000   2.7928460   0.0000000   2.7928460   0.0000000   2.7928460   0.0000000   2.7928460   0.0000000   2.7928460
 AtZNuc=   6.0000000   1.0000000   6.0000000   1.0000000   6.0000000   1.0000000   6.0000000   1.0000000   6.0000000   1.0000000

  Atom        11          12          13          14          15          16          17          18          19          20
 IAtWgt=          12           1          12           1          12           1          12           1          12           1
 AtmWgt=  12.0000000   1.0078250  12.0000000   1.0078250  12.0000000   1.0078250  12.0000000   1.0078250  12.0000000   1.0078250
 NucSpn=           0           1           0           1           0           1           0           1           0           1
 AtZEff=   0.0000000   0.0000000   0.0000000   0.0000000   0.0000000   0.0000000   0.0000000   0.0000000   0.0000000   0.0000000
 NQMom=    0.0000000   0.0000000   0.0000000   0.0000000   0.0000000   0.0000000   0.0000000   0.0000000   0.0000000   0.0000000
 NMagM=    0.0000000   2.7928460   0.0000000   2.7928460   0.0000000   2.7928460   0.0000000   2.7928460   0.0000000   2.7928460
 AtZNuc=   6.0000000   1.0000000   6.0000000   1.0000000   6.0000000   1.0000000   6.0000000   1.0000000   6.0000000   1.0000000

  Atom        21          22          23          24          25          26          27          28
 IAtWgt=          12           1           1           1          12           1           1           1
 AtmWgt=  12.0000000   1.0078250   1.0078250   1.0078250  12.0000000   1.0078250   1.0078250   1.0078250
 NucSpn=           0           1           1           1           0           1           1           1
 AtZEff=   0.0000000   0.0000000   0.0000000   0.0000000   0.0000000   0.0000000   0.0000000   0.0000000
 NQMom=    0.0000000   0.0000000   0.0000000   0.0000000   0.0000000   0.0000000   0.0000000   0.0000000
 NMagM=    0.0000000   2.7928460   2.7928460   2.7928460   0.0000000   2.7928460   2.7928460   2.7928460
 AtZNuc=   6.0000000   1.0000000   1.0000000   1.0000000   6.0000000   1.0000000   1.0000000   1.0000000
 Leave Link  101 at Mon Jun  7 00:33:55 2021, MaxMem=    33554432 cpu:         0.1
 (Enter /opt/app/gaussian09/e01/g09/l103.exe)

 GradGradGradGradGradGradGradGradGradGradGradGradGradGradGradGradGradGrad
 Berny optimization.
 Initialization pass.
                           ----------------------------
                           !    Initial Parameters    !
                           ! (Angstroms and Degrees)  !
 --------------------------                            --------------------------
 ! Name  Definition              Value          Derivative Info.                !
 --------------------------------------------------------------------------------
 ! R1    R(1,2)                  1.07           estimate D2E/DX2                !
 ! R2    R(1,3)                  1.3552         estimate D2E/DX2                !
 ! R3    R(1,17)                 1.54           estimate D2E/DX2                !
 ! R4    R(3,4)                  1.07           estimate D2E/DX2                !
 ! R5    R(3,5)                  1.54           estimate D2E/DX2                !
 ! R6    R(5,6)                  1.07           estimate D2E/DX2                !
 ! R7    R(5,7)                  1.3552         estimate D2E/DX2                !
 ! R8    R(7,8)                  1.07           estimate D2E/DX2                !
 ! R9    R(7,9)                  1.54           estimate D2E/DX2                !
 ! R10   R(9,10)                 1.07           estimate D2E/DX2                !
 ! R11   R(9,11)                 1.3552         estimate D2E/DX2                !
 ! R12   R(11,12)                1.07           estimate D2E/DX2                !
 ! R13   R(11,13)                1.54           estimate D2E/DX2                !
 ! R14   R(13,14)                1.07           estimate D2E/DX2                !
 ! R15   R(13,15)                1.3552         estimate D2E/DX2                !
 ! R16   R(15,16)                1.07           estimate D2E/DX2                !
 ! R17   R(15,25)                1.54           estimate D2E/DX2                !
 ! R18   R(17,18)                1.07           estimate D2E/DX2                !
 ! R19   R(17,19)                1.3552         estimate D2E/DX2                !
 ! R20   R(19,20)                1.07           estimate D2E/DX2                !
 ! R21   R(19,21)                1.54           estimate D2E/DX2                !
 ! R22   R(21,22)                1.07           estimate D2E/DX2                !
 ! R23   R(21,23)                1.07           estimate D2E/DX2                !
 ! R24   R(21,24)                1.07           estimate D2E/DX2                !
 ! R25   R(25,26)                1.07           estimate D2E/DX2                !
 ! R26   R(25,27)                1.07           estimate D2E/DX2                !
 ! R27   R(25,28)                1.07           estimate D2E/DX2                !
 ! A1    A(2,1,3)              120.0            estimate D2E/DX2                !
 ! A2    A(2,1,17)             120.0            estimate D2E/DX2                !
 ! A3    A(3,1,17)             120.0            estimate D2E/DX2                !
 ! A4    A(1,3,4)              120.0            estimate D2E/DX2                !
 ! A5    A(1,3,5)              120.0            estimate D2E/DX2                !
 ! A6    A(4,3,5)              120.0            estimate D2E/DX2                !
 ! A7    A(3,5,6)              120.0            estimate D2E/DX2                !
 ! A8    A(3,5,7)              120.0            estimate D2E/DX2                !
 ! A9    A(6,5,7)              120.0            estimate D2E/DX2                !
 ! A10   A(5,7,8)              120.0            estimate D2E/DX2                !
 ! A11   A(5,7,9)              120.0            estimate D2E/DX2                !
 ! A12   A(8,7,9)              120.0            estimate D2E/DX2                !
 ! A13   A(7,9,10)             120.0            estimate D2E/DX2                !
 ! A14   A(7,9,11)             120.0            estimate D2E/DX2                !
 ! A15   A(10,9,11)            120.0            estimate D2E/DX2                !
 ! A16   A(9,11,12)            120.0            estimate D2E/DX2                !
 ! A17   A(9,11,13)            120.0            estimate D2E/DX2                !
 ! A18   A(12,11,13)           120.0            estimate D2E/DX2                !
 ! A19   A(11,13,14)           120.0            estimate D2E/DX2                !
 ! A20   A(11,13,15)           120.0            estimate D2E/DX2                !
 ! A21   A(14,13,15)           120.0            estimate D2E/DX2                !
 ! A22   A(13,15,16)           120.0            estimate D2E/DX2                !
 ! A23   A(13,15,25)           120.0            estimate D2E/DX2                !
 ! A24   A(16,15,25)           120.0            estimate D2E/DX2                !
 ! A25   A(1,17,18)            120.0            estimate D2E/DX2                !
 ! A26   A(1,17,19)            120.0            estimate D2E/DX2                !
 ! A27   A(18,17,19)           120.0            estimate D2E/DX2                !
 ! A28   A(17,19,20)           120.0            estimate D2E/DX2                !
 ! A29   A(17,19,21)           120.0            estimate D2E/DX2                !
 ! A30   A(20,19,21)           120.0            estimate D2E/DX2                !
 ! A31   A(19,21,22)           109.4712         estimate D2E/DX2                !
 ! A32   A(19,21,23)           109.4712         estimate D2E/DX2                !
 ! A33   A(19,21,24)           109.4712         estimate D2E/DX2                !
 ! A34   A(22,21,23)           109.4712         estimate D2E/DX2                !
 ! A35   A(22,21,24)           109.4712         estimate D2E/DX2                !
 ! A36   A(23,21,24)           109.4712         estimate D2E/DX2                !
 ! A37   A(15,25,26)           109.4712         estimate D2E/DX2                !
 ! A38   A(15,25,27)           109.4712         estimate D2E/DX2                !
 ! A39   A(15,25,28)           109.4712         estimate D2E/DX2                !
 ! A40   A(26,25,27)           109.4712         estimate D2E/DX2                !
 ! A41   A(26,25,28)           109.4712         estimate D2E/DX2                !
 ! A42   A(27,25,28)           109.4712         estimate D2E/DX2                !
 ! D1    D(2,1,3,4)           -179.9998         estimate D2E/DX2                !
 ! D2    D(2,1,3,5)              0.0001         estimate D2E/DX2                !
 ! D3    D(17,1,3,4)             0.0002         estimate D2E/DX2                !
 ! D4    D(17,1,3,5)          -179.9998         estimate D2E/DX2                !
 ! D5    D(2,1,17,18)         -179.9998         estimate D2E/DX2                !
 ! D6    D(2,1,17,19)            0.0002         estimate D2E/DX2                !
 ! D7    D(3,1,17,18)            0.0002         estimate D2E/DX2                !
 ! D8    D(3,1,17,19)         -179.9998         estimate D2E/DX2                !
 ! D9    D(1,3,5,6)              0.0002         estimate D2E/DX2                !
 ! D10   D(1,3,5,7)           -179.9998         estimate D2E/DX2                !
 ! D11   D(4,3,5,6)           -179.9998         estimate D2E/DX2                !
 ! D12   D(4,3,5,7)              0.0002         estimate D2E/DX2                !
 ! D13   D(3,5,7,8)              0.0002         estimate D2E/DX2                !
 ! D14   D(3,5,7,9)           -179.9998         estimate D2E/DX2                !
 ! D15   D(6,5,7,8)           -179.9998         estimate D2E/DX2                !
 ! D16   D(6,5,7,9)              0.0002         estimate D2E/DX2                !
 ! D17   D(5,7,9,10)             0.0002         estimate D2E/DX2                !
 ! D18   D(5,7,9,11)          -179.9998         estimate D2E/DX2                !
 ! D19   D(8,7,9,10)          -179.9998         estimate D2E/DX2                !
 ! D20   D(8,7,9,11)             0.0002         estimate D2E/DX2                !
 ! D21   D(7,9,11,12)            0.0002         estimate D2E/DX2                !
 ! D22   D(7,9,11,13)         -179.9998         estimate D2E/DX2                !
 ! D23   D(10,9,11,12)        -179.9998         estimate D2E/DX2                !
 ! D24   D(10,9,11,13)           0.0002         estimate D2E/DX2                !
 ! D25   D(9,11,13,14)           0.0002         estimate D2E/DX2                !
 ! D26   D(9,11,13,15)        -179.9998         estimate D2E/DX2                !
 ! D27   D(12,11,13,14)       -179.9999         estimate D2E/DX2                !
 ! D28   D(12,11,13,15)          0.0002         estimate D2E/DX2                !
 ! D29   D(11,13,15,16)          0.0002         estimate D2E/DX2                !
 ! D30   D(11,13,15,25)       -179.9998         estimate D2E/DX2                !
 ! D31   D(14,13,15,16)       -179.9998         estimate D2E/DX2                !
 ! D32   D(14,13,15,25)          0.0002         estimate D2E/DX2                !
 ! D33   D(13,15,25,26)        150.0            estimate D2E/DX2                !
 ! D34   D(13,15,25,27)        -90.0            estimate D2E/DX2                !
 ! D35   D(13,15,25,28)         30.0            estimate D2E/DX2                !
 ! D36   D(16,15,25,26)        -30.0            estimate D2E/DX2                !
 ! D37   D(16,15,25,27)         90.0            estimate D2E/DX2                !
 ! D38   D(16,15,25,28)       -150.0            estimate D2E/DX2                !
 ! D39   D(1,17,19,20)           0.0            estimate D2E/DX2                !
 ! D40   D(1,17,19,21)         180.0            estimate D2E/DX2                !
 ! D41   D(18,17,19,20)        180.0            estimate D2E/DX2                !
 ! D42   D(18,17,19,21)          0.0            estimate D2E/DX2                !
 ! D43   D(17,19,21,22)       -150.0            estimate D2E/DX2                !
 ! D44   D(17,19,21,23)        -30.0            estimate D2E/DX2                !
 ! D45   D(17,19,21,24)         90.0            estimate D2E/DX2                !
 ! D46   D(20,19,21,22)         30.0            estimate D2E/DX2                !
 ! D47   D(20,19,21,23)        150.0            estimate D2E/DX2                !
 ! D48   D(20,19,21,24)        -90.0            estimate D2E/DX2                !
 --------------------------------------------------------------------------------
 Trust Radius=3.00D-01 FncErr=1.00D-07 GrdErr=1.00D-06
 Number of steps in this run=    127 maximum allowed number of steps=    168.
 GradGradGradGradGradGradGradGradGradGradGradGradGradGradGradGradGradGrad

 Leave Link  103 at Mon Jun  7 00:33:56 2021, MaxMem=    33554432 cpu:         0.0
 (Enter /opt/app/gaussian09/e01/g09/l202.exe)
                          Input orientation:                          
 ---------------------------------------------------------------------
 Center     Atomic      Atomic             Coordinates (Angstroms)
 Number     Number       Type             X           Y           Z
 ---------------------------------------------------------------------
      1          6           0       -2.832673   -1.837653    0.138084
      2          1           0       -3.887096   -1.841731    0.319951
      3          6           0       -2.161811   -0.662277    0.067342
      4          1           0       -1.107389   -0.658199   -0.114528
      5          6           0       -2.917048    0.667506    0.248709
      6          1           0       -3.971470    0.663427    0.430582
      7          6           0       -2.246187    1.842881    0.177962
      8          1           0       -1.191766    1.846960   -0.003915
      9          6           0       -3.001423    3.172664    0.359333
     10          1           0       -4.055844    3.168585    0.541213
     11          6           0       -2.330563    4.348040    0.288582
     12          1           0       -1.276143    4.352119    0.106698
     13          6           0       -3.085798    5.677822    0.469958
     14          1           0       -4.140218    5.673743    0.651843
     15          6           0       -2.414939    6.853198    0.399201
     16          1           0       -1.360520    6.857278    0.217312
     17          6           0       -2.077436   -3.167436   -0.043279
     18          1           0       -1.023012   -3.163357   -0.225142
     19          6           0       -2.748298   -4.342811    0.027460
     20          1           0       -3.802722   -4.346890    0.209324
     21          6           0       -1.993061   -5.672594   -0.153903
     22          1           0       -2.650643   -6.400924   -0.580544
     23          1           0       -1.157135   -5.522134   -0.804664
     24          1           0       -1.646661   -6.018666    0.797486
     25          6           0       -3.170174    8.182981    0.580581
     26          1           0       -2.512582    8.911311    1.007205
     27          1           0       -3.516596    8.529050   -0.370801
     28          1           0       -4.006084    8.032520    1.231362
 ---------------------------------------------------------------------
                    Distance matrix (angstroms):
                    1          2          3          4          5
     1  C    0.000000
     2  H    1.070000   0.000000
     3  C    1.355200   2.105120   0.000000
     4  H    2.105120   3.052261   1.070000   0.000000
     5  C    2.509019   2.691159   1.540000   2.272510   0.000000
     6  H    2.763659   2.509019   2.272510   3.201062   1.070000
     7  C    3.727182   4.035977   2.509019   2.763659   1.355200
     8  H    4.035977   4.579972   2.691159   2.509019   2.105120
     9  C    5.018037   5.092163   3.936621   4.299700   2.509019
    10  H    5.169243   5.018037   4.299700   4.875208   2.763659
    11  C    6.207862   6.382558   5.018037   5.169243   3.727182
    12  H    6.382558   6.725053   5.092163   5.018037   4.035977
    13  C    7.527056   7.563615   6.419713   6.663399   5.018037
    14  H    7.641641   7.527056   6.663399   7.062497   5.169243
    15  C    8.704801   8.819032   7.527056   7.641641   6.207862
    16  H    8.819032   9.059077   7.563615   7.527056   6.382558
    17  C    1.540000   2.272510   2.509019   2.691159   3.936621
    18  H    2.272510   3.201062   2.763659   2.509019   4.299700
    19  C    2.509019   2.763659   3.727182   4.035977   5.018037
    20  H    2.691159   2.509019   4.035977   4.579972   5.092163
    21  C    3.936621   4.299700   5.018037   5.092163   6.419713
    22  H    4.623095   4.808944   5.795755   5.964704   7.121891
    23  H    4.155912   4.718348   5.038648   4.912904   6.520623
    24  H    4.395714   4.763861   5.430413   5.464174   6.827879
    25  C   10.036075  10.053694   8.917331   9.105202   7.527056
    26  H   10.788793  10.862299   9.626006   9.736959   8.288501
    27  H   10.401694  10.400362   9.300963   9.501342   7.908675
    28  H    9.999623   9.916938   8.964139   9.259721   7.509663
                    6          7          8          9         10
     6  H    0.000000
     7  C    2.105120   0.000000
     8  H    3.052261   1.070000   0.000000
     9  C    2.691159   1.540000   2.272510   0.000000
    10  H    2.509019   2.272510   3.201062   1.070000   0.000000
    11  C    4.035977   2.509019   2.763659   1.355200   2.105120
    12  H    4.579972   2.691159   2.509019   2.105120   3.052261
    13  C    5.092163   3.936621   4.299700   2.509019   2.691159
    14  H    5.018037   4.299700   4.875208   2.763659   2.509019
    15  C    6.382558   5.018037   5.169243   3.727182   4.035977
    16  H    6.725053   5.092163   5.018037   4.035977   4.579972
    17  C    4.299700   5.018037   5.092163   6.419713   6.663399
    18  H    4.875208   5.169243   5.018037   6.663399   7.062497
    19  C    5.169243   6.207862   6.382558   7.527056   7.641641
    20  H    5.018037   6.382558   6.725053   7.563615   7.527056
    21  C    6.663399   7.527056   7.563615   8.917331   9.105202
    22  H    7.257548   8.288500   8.395738   9.626006   9.736962
    23  H    6.907060   7.509662   7.412553   8.964139   9.259724
    24  H    7.084470   7.908676   7.919422   9.300962   9.501337
    25  C    7.563615   6.419713   6.663399   5.018037   5.092163
    26  H    8.395740   7.121890   7.257546   5.795755   5.964706
    27  H    7.919417   6.827880   7.084474   5.430412   5.464170
    28  H    7.412556   6.520622   6.907058   5.038648   4.912906
                   11         12         13         14         15
    11  C    0.000000
    12  H    1.070000   0.000000
    13  C    1.540000   2.272510   0.000000
    14  H    2.272510   3.201062   1.070000   0.000000
    15  C    2.509019   2.763659   1.355200   2.105120   0.000000
    16  H    2.691159   2.509019   2.105120   3.052261   1.070000
    17  C    7.527056   7.563615   8.917331   9.105202  10.036075
    18  H    7.641641   7.527056   9.105202   9.411717  10.132060
    19  C    8.704801   8.819032  10.036075  10.132060  11.207138
    20  H    8.819032   9.059077  10.053694  10.036075  11.287336
    21  C   10.036075  10.053694  11.419949  11.575788  12.545094
    22  H   10.788792  10.862296  12.132148  12.228458  13.292374
    23  H    9.999622   9.916935  11.436058  11.677665  12.497208
    24  H   10.401696  10.400368  11.789242  11.956231  12.900921
    25  C    3.936621   4.299700   2.509019   2.691159   1.540000
    26  H    4.623094   4.808943   3.327561   3.641062   2.148263
    27  H    4.395715   4.763863   3.003658   3.096367   2.148263
    28  H    4.155912   4.718347   2.640315   2.432625   2.148263
                   16         17         18         19         20
    16  H    0.000000
    17  C   10.053694   0.000000
    18  H   10.036075   1.070000   0.000000
    19  C   11.287336   1.355200   2.105120   0.000000
    20  H   11.467248   2.105120   3.052261   1.070000   0.000000
    21  C   12.551319   2.509019   2.691159   1.540000   2.272510
    22  H   13.344695   3.327561   3.641061   2.148263   2.483995
    23  H   12.423189   2.640315   2.432624   2.148263   3.067328
    24  H   12.892183   3.003658   3.096368   2.148263   2.790944
    25  C    2.272510  11.419949  11.575788  12.545094  12.551319
    26  H    2.483995  12.132148  12.228455  13.292375  13.344698
    27  H    2.790944  11.789243  11.956236  12.900919  12.892178
    28  H    3.067328  11.436057  11.677662  12.497208  12.423192
                   21         22         23         24         25
    21  C    0.000000
    22  H    1.070000   0.000000
    23  H    1.070000   1.747303   0.000000
    24  H    1.070000   1.747303   1.747303   0.000000
    25  C   13.924870  14.639276  13.921257  14.284778   0.000000
    26  H   14.639275  15.394952  14.609738  14.956538   1.070000
    27  H   14.284779  14.956537  14.254510  14.713857   1.070000
    28  H   13.921256  14.609741  13.999662  14.254506   1.070000
                   26         27         28
    26  H    0.000000
    27  H    1.747303   0.000000
    28  H    1.747303   1.747303   0.000000
 Stoichiometry    C12H16
 Framework group  C1[X(C12H16)]
 Deg. of freedom    78
 Full point group                 C1      NOp   1
 Largest Abelian subgroup         C1      NOp   1
 Largest concise Abelian subgroup C1      NOp   1
                         Standard orientation:                         
 ---------------------------------------------------------------------
 Center     Atomic      Atomic             Coordinates (Angstroms)
 Number     Number       Type             X           Y           Z
 ---------------------------------------------------------------------
      1          6           0        3.076005   -0.415427   -0.000003
      2          1           0        3.017425   -1.483822   -0.000011
      3          6           0        1.941225    0.325411    0.000002
      4          1           0        1.999805    1.393806    0.000008
      5          6           0        0.567390   -0.370419   -0.000001
      6          1           0        0.508810   -1.438814   -0.000003
      7          6           0       -0.567390    0.370419   -0.000000
      8          1           0       -0.508810    1.438814   -0.000002
      9          6           0       -1.941225   -0.325411    0.000001
     10          1           0       -1.999805   -1.393806    0.000006
     11          6           0       -3.076005    0.415427   -0.000003
     12          1           0       -3.017425    1.483822   -0.000011
     13          6           0       -4.449840   -0.280402    0.000003
     14          1           0       -4.508420   -1.348797    0.000013
     15          6           0       -5.584620    0.460435   -0.000006
     16          1           0       -5.526040    1.528831   -0.000020
     17          6           0        4.449840    0.280402    0.000004
     18          1           0        4.508420    1.348797    0.000016
     19          6           0        5.584620   -0.460435   -0.000005
     20          1           0        5.526040   -1.528831   -0.000016
     21          6           0        6.958455    0.235394    0.000002
     22          1           0        7.671385   -0.382830   -0.504408
     23          1           0        6.881889    1.175939   -0.504390
     24          1           0        7.276638    0.396538    1.008809
     25          6           0       -6.958455   -0.235394    0.000004
     26          1           0       -7.671385    0.382842    0.504399
     27          1           0       -7.276638   -0.396562   -1.008800
     28          1           0       -6.881889   -1.175927    0.504419
 ---------------------------------------------------------------------
 Rotational constants (GHZ):     11.0709289      0.1597063      0.1577375
 Leave Link  202 at Mon Jun  7 00:33:57 2021, MaxMem=    33554432 cpu:         0.0
 (Enter /opt/app/gaussian09/e01/g09/l301.exe)
 Standard basis: 6-31G(d) (6D, 7F)
 Ernie: Thresh=  0.10000D-02 Tol=  0.10000D-05 Strict=F.
 There are   212 symmetry adapted cartesian basis functions of A   symmetry.
 There are   212 symmetry adapted basis functions of A   symmetry.
   212 basis functions,   400 primitive gaussians,   212 cartesian basis functions
    44 alpha electrons       44 beta electrons
       nuclear repulsion energy       544.2284630227 Hartrees.
 IExCor=  402 DFT=T Ex+Corr=B3LYP ExCW=0 ScaHFX=  0.200000
 ScaDFX=  0.800000  0.720000  1.000000  0.810000 ScalE2=  1.000000  1.000000
 IRadAn=      5 IRanWt=     -1 IRanGd=            0 ICorTp=0 IEmpDi=  4
 NAtoms=   28 NActive=   28 NUniq=   28 SFac= 1.00D+00 NAtFMM=   60 NAOKFM=F Big=F
 Integral buffers will be    131072 words long.
 Raffenetti 2 integral format.
 Two-electron integral symmetry is turned on.
 Leave Link  301 at Mon Jun  7 00:33:58 2021, MaxMem=    33554432 cpu:         0.1
 (Enter /opt/app/gaussian09/e01/g09/l302.exe)
 NPDir=0 NMtPBC=     1 NCelOv=     1 NCel=       1 NClECP=     1 NCelD=      1
         NCelK=      1 NCelE2=     1 NClLst=     1 CellRange=     0.0.
 One-electron integrals computed using PRISM.
 NBasis=   212 RedAO= T EigKep=  2.06D-03  NBF=   212
 NBsUse=   212 1.00D-06 EigRej= -1.00D+00 NBFU=   212
 Precomputing XC quadrature grid using
 IXCGrd= 4 IRadAn=           5 IRanWt=          -1 IRanGd=           0 AccXCQ= 0.00D+00.
 Generated NRdTot=       0 NPtTot=           0 NUsed=           0 NTot=          32
 NSgBfM=   206   206   206   206   206 MxSgAt=    28 MxSgA2=    28.
 Leave Link  302 at Mon Jun  7 00:34:01 2021, MaxMem=    33554432 cpu:         1.2
 (Enter /opt/app/gaussian09/e01/g09/l303.exe)
 DipDrv:  MaxL=1.
 Leave Link  303 at Mon Jun  7 00:34:02 2021, MaxMem=    33554432 cpu:         0.0
 (Enter /opt/app/gaussian09/e01/g09/l401.exe)
 ExpMin= 1.61D-01 ExpMax= 3.05D+03 ExpMxC= 4.57D+02 IAcc=3 IRadAn=         5 AccDes= 0.00D+00
 Harris functional with IExCor=  402 and IRadAn=       5 diagonalized for initial guess.
 HarFok:  IExCor=  402 AccDes= 0.00D+00 IRadAn=         5 IDoV= 1 UseB2=F ITyADJ=14
 ICtDFT=  3500011 ScaDFX=  1.000000  1.000000  1.000000  1.000000
 FoFCou: FMM=F IPFlag=           0 FMFlag=      100000 FMFlg1=           0
         NFxFlg=           0 DoJE=T BraDBF=F KetDBF=T FulRan=T
         wScrn=  0.000000 ICntrl=     500 IOpCl=  0 I1Cent=   200000004 NGrid=           0
         NMat0=    1 NMatS0=      1 NMatT0=    0 NMatD0=    1 NMtDS0=    0 NMtDT0=    0
 Petite list used in FoFCou.
 Harris En= -466.917417843434    
 JPrj=0 DoOrth=F DoCkMO=F.
 Leave Link  401 at Mon Jun  7 00:34:17 2021, MaxMem=    33554432 cpu:        12.2
 (Enter /opt/app/gaussian09/e01/g09/l502.exe)
 Closed shell SCF:
 Using DIIS extrapolation, IDIIS=  1040.
 Integral symmetry usage will be decided dynamically.
 IVT=      156274 IEndB=      156274 NGot=    33554432 MDV=    33459955
 LenX=    33459955 LenY=    33414570
 Requested convergence on RMS density matrix=1.00D-08 within 128 cycles.
 Requested convergence on MAX density matrix=1.00D-06.
 Requested convergence on             energy=1.00D-06.
 No special actions if energy rises.
 Fock matrices will be formed incrementally for  20 cycles.
 Integral accuracy reduced to 1.0D-05 until final iterations.

 Cycle   1  Pass 0  IDiag  1:
 FoFJK:  IHMeth= 1 ICntrl=       0 DoSepK=F KAlg= 0 I1Cent=   0 FoldK=F
 IRaf= 650000000 NMat=   1 IRICut=       1 DoRegI=T DoRafI=F ISym2E= 0.
 FoFCou: FMM=F IPFlag=           0 FMFlag=      100000 FMFlg1=           0
         NFxFlg=           0 DoJE=F BraDBF=F KetDBF=F FulRan=T
         wScrn=  0.000000 ICntrl=       0 IOpCl=  0 I1Cent=           0 NGrid=           0
         NMat0=    1 NMatS0=      1 NMatT0=    0 NMatD0=    1 NMtDS0=    0 NMtDT0=    0
 Symmetry not used in FoFCou.
 E= -466.466325782173    
 DIIS: error= 4.44D-02 at cycle   1 NSaved=   1.
 NSaved= 1 IEnMin= 1 EnMin= -466.466325782173     IErMin= 1 ErrMin= 4.44D-02
 ErrMax= 4.44D-02  0.00D+00 EMaxC= 1.00D-01 BMatC= 3.07D-01 BMatP= 3.07D-01
 IDIUse=3 WtCom= 5.56D-01 WtEn= 4.44D-01
 Coeff-Com:  0.100D+01
 Coeff-En:   0.100D+01
 Coeff:      0.100D+01
 Gap=     0.139 Goal=   None    Shift=    0.000
 GapD=    0.139 DampG=1.000 DampE=0.500 DampFc=0.5000 IDamp=-1.
 Damping current iteration by 5.00D-01
 RMSDP=5.63D-03 MaxDP=1.36D-01              OVMax= 1.61D-01

 Cycle   2  Pass 0  IDiag  1:
 RMSU=  2.74D-03    CP:  9.72D-01
 E= -466.643360892932     Delta-E=       -0.177035110759 Rises=F Damp=T
 DIIS: error= 7.02D-03 at cycle   2 NSaved=   2.
 NSaved= 2 IEnMin= 2 EnMin= -466.643360892932     IErMin= 2 ErrMin= 7.02D-03
 ErrMax= 7.02D-03  0.00D+00 EMaxC= 1.00D-01 BMatC= 1.18D-02 BMatP= 3.07D-01
 IDIUse=3 WtCom= 9.30D-01 WtEn= 7.02D-02
 Coeff-Com: -0.405D-01 0.104D+01
 Coeff-En:   0.000D+00 0.100D+01
 Coeff:     -0.377D-01 0.104D+01
 Gap=     0.143 Goal=   None    Shift=    0.000
 RMSDP=8.73D-04 MaxDP=1.51D-02 DE=-1.77D-01 OVMax= 8.74D-02

 Cycle   3  Pass 0  IDiag  1:
 RMSU=  8.65D-04    CP:  9.67D-01  9.78D-01
 E= -466.814287282272     Delta-E=       -0.170926389340 Rises=F Damp=F
 DIIS: error= 3.09D-03 at cycle   3 NSaved=   3.
 NSaved= 3 IEnMin= 3 EnMin= -466.814287282272     IErMin= 3 ErrMin= 3.09D-03
 ErrMax= 3.09D-03  0.00D+00 EMaxC= 1.00D-01 BMatC= 1.94D-03 BMatP= 1.18D-02
 IDIUse=3 WtCom= 9.69D-01 WtEn= 3.09D-02
 Coeff-Com: -0.316D-01 0.248D+00 0.784D+00
 Coeff-En:   0.000D+00 0.000D+00 0.100D+01
 Coeff:     -0.306D-01 0.240D+00 0.790D+00
 Gap=     0.143 Goal=   None    Shift=    0.000
 RMSDP=4.03D-04 MaxDP=1.05D-02 DE=-1.71D-01 OVMax= 3.28D-02

 Cycle   4  Pass 0  IDiag  1:
 RMSU=  3.72D-04    CP:  9.66D-01  9.88D-01  8.23D-01
 E= -466.814473321613     Delta-E=       -0.000186039342 Rises=F Damp=F
 DIIS: error= 3.88D-03 at cycle   4 NSaved=   4.
 NSaved= 4 IEnMin= 4 EnMin= -466.814473321613     IErMin= 3 ErrMin= 3.09D-03
 ErrMax= 3.88D-03  0.00D+00 EMaxC= 1.00D-01 BMatC= 1.58D-03 BMatP= 1.94D-03
 IDIUse=3 WtCom= 9.61D-01 WtEn= 3.88D-02
 Coeff-Com: -0.142D-01 0.667D-01 0.489D+00 0.459D+00
 Coeff-En:   0.000D+00 0.000D+00 0.479D+00 0.521D+00
 Coeff:     -0.136D-01 0.641D-01 0.488D+00 0.461D+00
 Gap=     0.143 Goal=   None    Shift=    0.000
 RMSDP=2.48D-04 MaxDP=8.36D-03 DE=-1.86D-04 OVMax= 2.40D-02

 Cycle   5  Pass 0  IDiag  1:
 RMSU=  9.11D-05    CP:  9.66D-01  9.95D-01  8.93D-01  4.03D-01
 E= -466.816229469349     Delta-E=       -0.001756147736 Rises=F Damp=F
 DIIS: error= 8.63D-04 at cycle   5 NSaved=   5.
 NSaved= 5 IEnMin= 5 EnMin= -466.816229469349     IErMin= 5 ErrMin= 8.63D-04
 ErrMax= 8.63D-04  0.00D+00 EMaxC= 1.00D-01 BMatC= 1.39D-04 BMatP= 1.58D-03
 IDIUse=3 WtCom= 9.91D-01 WtEn= 8.63D-03
 Coeff-Com: -0.544D-02 0.181D-01 0.232D+00 0.287D+00 0.468D+00
 Coeff-En:   0.000D+00 0.000D+00 0.000D+00 0.145D-01 0.986D+00
 Coeff:     -0.539D-02 0.180D-01 0.230D+00 0.285D+00 0.472D+00
 Gap=     0.143 Goal=   None    Shift=    0.000
 RMSDP=5.64D-05 MaxDP=2.29D-03 DE=-1.76D-03 OVMax= 5.10D-03

 Cycle   6  Pass 0  IDiag  1:
 RMSU=  2.69D-05    CP:  9.66D-01  9.95D-01  8.90D-01  4.70D-01  5.32D-01
 E= -466.816375557150     Delta-E=       -0.000146087801 Rises=F Damp=F
 DIIS: error= 9.22D-05 at cycle   6 NSaved=   6.
 NSaved= 6 IEnMin= 6 EnMin= -466.816375557150     IErMin= 6 ErrMin= 9.22D-05
 ErrMax= 9.22D-05  0.00D+00 EMaxC= 1.00D-01 BMatC= 4.17D-06 BMatP= 1.39D-04
 IDIUse=1 WtCom= 1.00D+00 WtEn= 0.00D+00
 Coeff-Com: -0.934D-03 0.131D-02 0.535D-01 0.841D-01 0.209D+00 0.653D+00
 Coeff:     -0.934D-03 0.131D-02 0.535D-01 0.841D-01 0.209D+00 0.653D+00
 Gap=     0.143 Goal=   None    Shift=    0.000
 RMSDP=1.05D-05 MaxDP=3.69D-04 DE=-1.46D-04 OVMax= 5.93D-04

 Cycle   7  Pass 0  IDiag  1:
 RMSU=  5.05D-06    CP:  9.66D-01  9.94D-01  8.92D-01  4.78D-01  5.71D-01
                    CP:  7.23D-01
 E= -466.816379491159     Delta-E=       -0.000003934009 Rises=F Damp=F
 DIIS: error= 3.73D-05 at cycle   7 NSaved=   7.
 NSaved= 7 IEnMin= 7 EnMin= -466.816379491159     IErMin= 7 ErrMin= 3.73D-05
 ErrMax= 3.73D-05  0.00D+00 EMaxC= 1.00D-01 BMatC= 2.88D-07 BMatP= 4.17D-06
 IDIUse=1 WtCom= 1.00D+00 WtEn= 0.00D+00
 Coeff-Com: -0.376D-03 0.263D-03 0.236D-01 0.387D-01 0.102D+00 0.353D+00
 Coeff-Com:  0.483D+00
 Coeff:     -0.376D-03 0.263D-03 0.236D-01 0.387D-01 0.102D+00 0.353D+00
 Coeff:      0.483D+00
 Gap=     0.143 Goal=   None    Shift=    0.000
 RMSDP=3.10D-06 MaxDP=1.23D-04 DE=-3.93D-06 OVMax= 2.42D-04

 Initial convergence to 1.0D-05 achieved.  Increase integral accuracy.
 Cycle   8  Pass 1  IDiag  1:
 E= -466.816356577866     Delta-E=        0.000022913293 Rises=F Damp=F
 DIIS: error= 2.45D-05 at cycle   1 NSaved=   1.
 NSaved= 1 IEnMin= 1 EnMin= -466.816356577866     IErMin= 1 ErrMin= 2.45D-05
 ErrMax= 2.45D-05  0.00D+00 EMaxC= 1.00D-01 BMatC= 8.51D-08 BMatP= 8.51D-08
 IDIUse=1 WtCom= 1.00D+00 WtEn= 0.00D+00
 Coeff-Com:  0.100D+01
 Coeff:      0.100D+01
 Gap=     0.143 Goal=   None    Shift=    0.000
 RMSDP=3.10D-06 MaxDP=1.23D-04 DE= 2.29D-05 OVMax= 2.16D-04

 Cycle   9  Pass 1  IDiag  1:
 RMSU=  5.72D-06    CP:  1.00D+00
 E= -466.816356482336     Delta-E=        0.000000095530 Rises=F Damp=F
 DIIS: error= 2.83D-05 at cycle   2 NSaved=   2.
 NSaved= 2 IEnMin= 1 EnMin= -466.816356577866     IErMin= 1 ErrMin= 2.45D-05
 ErrMax= 2.83D-05  0.00D+00 EMaxC= 1.00D-01 BMatC= 1.47D-07 BMatP= 8.51D-08
 IDIUse=1 WtCom= 1.00D+00 WtEn= 0.00D+00
 Coeff-Com:  0.582D+00 0.418D+00
 Coeff:      0.582D+00 0.418D+00
 Gap=     0.143 Goal=   None    Shift=    0.000
 RMSDP=2.25D-06 MaxDP=7.72D-05 DE= 9.55D-08 OVMax= 1.70D-04

 Cycle  10  Pass 1  IDiag  1:
 RMSU=  2.03D-06    CP:  1.00D+00  8.27D-01
 E= -466.816356633200     Delta-E=       -0.000000150864 Rises=F Damp=F
 DIIS: error= 7.55D-06 at cycle   3 NSaved=   3.
 NSaved= 3 IEnMin= 3 EnMin= -466.816356633200     IErMin= 3 ErrMin= 7.55D-06
 ErrMax= 7.55D-06  0.00D+00 EMaxC= 1.00D-01 BMatC= 1.00D-08 BMatP= 8.51D-08
 IDIUse=1 WtCom= 1.00D+00 WtEn= 0.00D+00
 Coeff-Com:  0.129D-01 0.207D+00 0.780D+00
 Coeff:      0.129D-01 0.207D+00 0.780D+00
 Gap=     0.143 Goal=   None    Shift=    0.000
 RMSDP=5.08D-07 MaxDP=1.87D-05 DE=-1.51D-07 OVMax= 3.90D-05

 Cycle  11  Pass 1  IDiag  1:
 RMSU=  1.61D-07    CP:  1.00D+00  8.70D-01  7.97D-01
 E= -466.816356643817     Delta-E=       -0.000000010618 Rises=F Damp=F
 DIIS: error= 1.07D-06 at cycle   4 NSaved=   4.
 NSaved= 4 IEnMin= 4 EnMin= -466.816356643817     IErMin= 4 ErrMin= 1.07D-06
 ErrMax= 1.07D-06  0.00D+00 EMaxC= 1.00D-01 BMatC= 4.62D-10 BMatP= 1.00D-08
 IDIUse=1 WtCom= 1.00D+00 WtEn= 0.00D+00
 Coeff-Com: -0.866D-03 0.114D+00 0.452D+00 0.435D+00
 Coeff:     -0.866D-03 0.114D+00 0.452D+00 0.435D+00
 Gap=     0.143 Goal=   None    Shift=    0.000
 RMSDP=1.03D-07 MaxDP=4.39D-06 DE=-1.06D-08 OVMax= 9.09D-06

 Cycle  12  Pass 1  IDiag  1:
 RMSU=  6.14D-08    CP:  1.00D+00  8.70D-01  8.07D-01  5.01D-01
 E= -466.816356644254     Delta-E=       -0.000000000437 Rises=F Damp=F
 DIIS: error= 5.24D-07 at cycle   5 NSaved=   5.
 NSaved= 5 IEnMin= 5 EnMin= -466.816356644254     IErMin= 5 ErrMin= 5.24D-07
 ErrMax= 5.24D-07  0.00D+00 EMaxC= 1.00D-01 BMatC= 2.78D-11 BMatP= 4.62D-10
 IDIUse=1 WtCom= 1.00D+00 WtEn= 0.00D+00
 Coeff-Com: -0.119D-02 0.537D-01 0.215D+00 0.263D+00 0.469D+00
 Coeff:     -0.119D-02 0.537D-01 0.215D+00 0.263D+00 0.469D+00
 Gap=     0.143 Goal=   None    Shift=    0.000
 RMSDP=3.21D-08 MaxDP=1.10D-06 DE=-4.37D-10 OVMax= 3.22D-06

 Cycle  13  Pass 1  IDiag  1:
 RMSU=  1.82D-08    CP:  1.00D+00  8.70D-01  8.05D-01  5.41D-01  5.89D-01
 E= -466.816356644310     Delta-E=       -0.000000000056 Rises=F Damp=F
 DIIS: error= 9.69D-08 at cycle   6 NSaved=   6.
 NSaved= 6 IEnMin= 6 EnMin= -466.816356644310     IErMin= 6 ErrMin= 9.69D-08
 ErrMax= 9.69D-08  0.00D+00 EMaxC= 1.00D-01 BMatC= 1.44D-12 BMatP= 2.78D-11
 IDIUse=1 WtCom= 1.00D+00 WtEn= 0.00D+00
 Coeff-Com: -0.512D-03 0.126D-01 0.514D-01 0.764D-01 0.226D+00 0.634D+00
 Coeff:     -0.512D-03 0.126D-01 0.514D-01 0.764D-01 0.226D+00 0.634D+00
 Gap=     0.143 Goal=   None    Shift=    0.000
 RMSDP=6.81D-09 MaxDP=1.76D-07 DE=-5.59D-11 OVMax= 6.46D-07

 SCF Done:  E(RB3LYP) =  -466.816356644     A.U. after   13 cycles
            NFock= 13  Conv=0.68D-08     -V/T= 2.0107
 KE= 4.618898064747D+02 PE=-2.167671617872D+03 EE= 6.947369917307D+02
 Leave Link  502 at Mon Jun  7 00:36:45 2021, MaxMem=    33554432 cpu:       147.1
 (Enter /opt/app/gaussian09/e01/g09/l601.exe)
 Copying SCF densities to generalized density rwf, IOpCl= 0 IROHF=0.

 **********************************************************************

            Population analysis using the SCF density.

 **********************************************************************

 Orbital symmetries:
       Occupied  (A) (A) (A) (A) (A) (A) (A) (A) (A) (A) (A) (A)
                 (A) (A) (A) (A) (A) (A) (A) (A) (A) (A) (A) (A)
                 (A) (A) (A) (A) (A) (A) (A) (A) (A) (A) (A) (A)
                 (A) (A) (A) (A) (A) (A) (A) (A)
       Virtual   (A) (A) (A) (A) (A) (A) (A) (A) (A) (A) (A) (A)
                 (A) (A) (A) (A) (A) (A) (A) (A) (A) (A) (A) (A)
                 (A) (A) (A) (A) (A) (A) (A) (A) (A) (A) (A) (A)
                 (A) (A) (A) (A) (A) (A) (A) (A) (A) (A) (A) (A)
                 (A) (A) (A) (A) (A) (A) (A) (A) (A) (A) (A) (A)
                 (A) (A) (A) (A) (A) (A) (A) (A) (A) (A) (A) (A)
                 (A) (A) (A) (A) (A) (A) (A) (A) (A) (A) (A) (A)
                 (A) (A) (A) (A) (A) (A) (A) (A) (A) (A) (A) (A)
                 (A) (A) (A) (A) (A) (A) (A) (A) (A) (A) (A) (A)
                 (A) (A) (A) (A) (A) (A) (A) (A) (A) (A) (A) (A)
                 (A) (A) (A) (A) (A) (A) (A) (A) (A) (A) (A) (A)
                 (A) (A) (A) (A) (A) (A) (A) (A) (A) (A) (A) (A)
                 (A) (A) (A) (A) (A) (A) (A) (A) (A) (A) (A) (A)
                 (A) (A) (A) (A) (A) (A) (A) (A) (A) (A) (A) (A)
 The electronic state is 1-A.
 Alpha  occ. eigenvalues --  -10.18972 -10.18920 -10.18918 -10.18896 -10.18837
 Alpha  occ. eigenvalues --  -10.18837 -10.18665 -10.18665 -10.18568 -10.18568
 Alpha  occ. eigenvalues --  -10.17433 -10.17433  -0.80731  -0.79677  -0.78003
 Alpha  occ. eigenvalues --   -0.75591  -0.72402  -0.68128  -0.66329  -0.58719
 Alpha  occ. eigenvalues --   -0.56413  -0.55675  -0.54982  -0.54563  -0.46779
 Alpha  occ. eigenvalues --   -0.46182  -0.43856  -0.43045  -0.41639  -0.41613
 Alpha  occ. eigenvalues --   -0.41292  -0.39696  -0.38758  -0.37553  -0.36980
 Alpha  occ. eigenvalues --   -0.36753  -0.36006  -0.33840  -0.32802  -0.31568
 Alpha  occ. eigenvalues --   -0.30507  -0.27040  -0.22740  -0.18524
 Alpha virt. eigenvalues --   -0.04229   0.00603   0.05141   0.08217   0.09536
 Alpha virt. eigenvalues --    0.10135   0.11711   0.12138   0.12213   0.13967
 Alpha virt. eigenvalues --    0.14490   0.14576   0.15591   0.15860   0.16048
 Alpha virt. eigenvalues --    0.17460   0.18541   0.19303   0.19486   0.20202
 Alpha virt. eigenvalues --    0.21448   0.22151   0.24377   0.27894   0.32042
 Alpha virt. eigenvalues --    0.32594   0.34002   0.35064   0.37105   0.40652
 Alpha virt. eigenvalues --    0.41235   0.41629   0.47919   0.49418   0.52912
 Alpha virt. eigenvalues --    0.53389   0.53697   0.53941   0.55388   0.56638
 Alpha virt. eigenvalues --    0.57123   0.57588   0.58908   0.59559   0.59715
 Alpha virt. eigenvalues --    0.60490   0.61758   0.62791   0.63842   0.63926
 Alpha virt. eigenvalues --    0.64618   0.67956   0.68339   0.69162   0.73377
 Alpha virt. eigenvalues --    0.73380   0.75604   0.75644   0.76927   0.76969
 Alpha virt. eigenvalues --    0.83185   0.84719   0.86923   0.88066   0.88147
 Alpha virt. eigenvalues --    0.88723   0.89145   0.89823   0.90153   0.90300
 Alpha virt. eigenvalues --    0.91299   0.91565   0.92939   0.92959   0.95103
 Alpha virt. eigenvalues --    0.95603   0.97764   0.98235   1.00407   1.03589
 Alpha virt. eigenvalues --    1.03606   1.05261   1.06659   1.10206   1.12056
 Alpha virt. eigenvalues --    1.14882   1.19892   1.21327   1.27538   1.28732
 Alpha virt. eigenvalues --    1.31274   1.32745   1.35221   1.35338   1.36260
 Alpha virt. eigenvalues --    1.36449   1.37923   1.39203   1.42078   1.43747
 Alpha virt. eigenvalues --    1.46438   1.48286   1.49308   1.53709   1.59059
 Alpha virt. eigenvalues --    1.64547   1.69112   1.75132   1.76456   1.78768
 Alpha virt. eigenvalues --    1.78956   1.79324   1.79854   1.88907   1.89428
 Alpha virt. eigenvalues --    1.91476   1.96106   1.99354   2.01182   2.01585
 Alpha virt. eigenvalues --    2.03213   2.03475   2.08999   2.09717   2.12488
 Alpha virt. eigenvalues --    2.15679   2.19118   2.19658   2.22035   2.23365
 Alpha virt. eigenvalues --    2.26498   2.27063   2.29506   2.29878   2.32763
 Alpha virt. eigenvalues --    2.32790   2.34979   2.37381   2.40731   2.43088
 Alpha virt. eigenvalues --    2.43176   2.44977   2.45415   2.47539   2.58974
 Alpha virt. eigenvalues --    2.66921   2.72634   2.75559   2.82029   2.84661
 Alpha virt. eigenvalues --    2.87167   2.89081   2.94986   2.96546   3.03496
 Alpha virt. eigenvalues --    3.03846   4.06132   4.07170   4.08895   4.11557
 Alpha virt. eigenvalues --    4.15330   4.16868   4.26102   4.30358   4.35785
 Alpha virt. eigenvalues --    4.42135   4.48217   4.52622
          Condensed to atoms (all electrons):
               1          2          3          4          5          6
     1  C    4.913680   0.365274   0.591286  -0.053452  -0.015005  -0.003411
     2  H    0.365274   0.599002  -0.052886   0.006096  -0.008426   0.003861
     3  C    0.591286  -0.052886   4.924130   0.365861   0.388121  -0.044932
     4  H   -0.053452   0.006096   0.365861   0.599828  -0.045074   0.003631
     5  C   -0.015005  -0.008426   0.388121  -0.045074   4.923597   0.365576
     6  H   -0.003411   0.003861  -0.044932   0.003631   0.365576   0.599031
     7  C    0.001669   0.000429  -0.015355  -0.003416   0.588892  -0.053024
     8  H    0.000426   0.000015  -0.008364   0.003862  -0.053024   0.006088
     9  C   -0.000165  -0.000005   0.003035   0.000125  -0.015355  -0.008364
    10  H   -0.000003   0.000001   0.000125   0.000005  -0.003416   0.003862
    11  C    0.000003  -0.000000  -0.000165  -0.000003   0.001669   0.000426
    12  H   -0.000000  -0.000000  -0.000005   0.000001   0.000429   0.000015
    13  C   -0.000000   0.000000   0.000001  -0.000000  -0.000167  -0.000005
    14  H    0.000000  -0.000000  -0.000000  -0.000000  -0.000003   0.000001
    15  C   -0.000000   0.000000  -0.000000   0.000000   0.000003   0.000000
    16  H    0.000000   0.000000   0.000000  -0.000000  -0.000000  -0.000000
    17  C    0.399570  -0.044455  -0.016936  -0.008323   0.003110   0.000120
    18  H   -0.044628   0.003705  -0.003522   0.003956   0.000131   0.000005
    19  C   -0.020322  -0.003703   0.001932   0.000414  -0.000176  -0.000003
    20  H   -0.009892   0.004052   0.000510   0.000014  -0.000005   0.000001
    21  C    0.003891   0.000049  -0.000186  -0.000007   0.000001  -0.000000
    22  H   -0.000134   0.000002   0.000002   0.000000  -0.000000   0.000000
    23  H    0.000146   0.000005   0.000007  -0.000000  -0.000000  -0.000000
    24  H   -0.000071   0.000000   0.000007   0.000000  -0.000000  -0.000000
    25  C   -0.000000  -0.000000   0.000000  -0.000000  -0.000000  -0.000000
    26  H    0.000000   0.000000  -0.000000   0.000000   0.000000   0.000000
    27  H    0.000000   0.000000  -0.000000   0.000000  -0.000000  -0.000000
    28  H    0.000000   0.000000   0.000000   0.000000   0.000000  -0.000000
               7          8          9         10         11         12
     1  C    0.001669   0.000426  -0.000165  -0.000003   0.000003  -0.000000
     2  H    0.000429   0.000015  -0.000005   0.000001  -0.000000  -0.000000
     3  C   -0.015355  -0.008364   0.003035   0.000125  -0.000165  -0.000005
     4  H   -0.003416   0.003862   0.000125   0.000005  -0.000003   0.000001
     5  C    0.588892  -0.053024  -0.015355  -0.003416   0.001669   0.000429
     6  H   -0.053024   0.006088  -0.008364   0.003862   0.000426   0.000015
     7  C    4.923597   0.365576   0.388121  -0.045074  -0.015005  -0.008426
     8  H    0.365576   0.599031  -0.044932   0.003631  -0.003411   0.003861
     9  C    0.388121  -0.044932   4.924130   0.365861   0.591286  -0.052886
    10  H   -0.045074   0.003631   0.365861   0.599828  -0.053452   0.006096
    11  C   -0.015005  -0.003411   0.591286  -0.053452   4.913680   0.365274
    12  H   -0.008426   0.003861  -0.052886   0.006096   0.365274   0.599002
    13  C    0.003110   0.000120  -0.016936  -0.008323   0.399570  -0.044455
    14  H    0.000131   0.000005  -0.003522   0.003956  -0.044628   0.003705
    15  C   -0.000176  -0.000003   0.001932   0.000414  -0.020322  -0.003703
    16  H   -0.000005   0.000001   0.000510   0.000014  -0.009892   0.004052
    17  C   -0.000167  -0.000005   0.000001  -0.000000  -0.000000   0.000000
    18  H   -0.000003   0.000001  -0.000000  -0.000000   0.000000  -0.000000
    19  C    0.000003   0.000000  -0.000000   0.000000  -0.000000   0.000000
    20  H   -0.000000  -0.000000   0.000000  -0.000000   0.000000   0.000000
    21  C   -0.000000  -0.000000   0.000000  -0.000000  -0.000000  -0.000000
    22  H    0.000000   0.000000  -0.000000   0.000000   0.000000   0.000000
    23  H    0.000000  -0.000000   0.000000   0.000000   0.000000   0.000000
    24  H   -0.000000  -0.000000  -0.000000   0.000000   0.000000   0.000000
    25  C    0.000001  -0.000000  -0.000186  -0.000007   0.003891   0.000049
    26  H   -0.000000   0.000000   0.000002   0.000000  -0.000134   0.000002
    27  H   -0.000000  -0.000000   0.000007   0.000000  -0.000071   0.000000
    28  H   -0.000000  -0.000000   0.000007  -0.000000   0.000146   0.000005
              13         14         15         16         17         18
     1  C   -0.000000   0.000000  -0.000000   0.000000   0.399570  -0.044628
     2  H    0.000000  -0.000000   0.000000   0.000000  -0.044455   0.003705
     3  C    0.000001  -0.000000  -0.000000   0.000000  -0.016936  -0.003522
     4  H   -0.000000  -0.000000   0.000000  -0.000000  -0.008323   0.003956
     5  C   -0.000167  -0.000003   0.000003  -0.000000   0.003110   0.000131
     6  H   -0.000005   0.000001   0.000000  -0.000000   0.000120   0.000005
     7  C    0.003110   0.000131  -0.000176  -0.000005  -0.000167  -0.000003
     8  H    0.000120   0.000005  -0.000003   0.000001  -0.000005   0.000001
     9  C   -0.016936  -0.003522   0.001932   0.000510   0.000001  -0.000000
    10  H   -0.008323   0.003956   0.000414   0.000014  -0.000000  -0.000000
    11  C    0.399570  -0.044628  -0.020322  -0.009892  -0.000000   0.000000
    12  H   -0.044455   0.003705  -0.003703   0.004052   0.000000  -0.000000
    13  C    4.851914   0.365073   0.642526  -0.044543   0.000000  -0.000000
    14  H    0.365073   0.604324  -0.054901   0.006316  -0.000000   0.000000
    15  C    0.642526  -0.054901   4.926584   0.369220   0.000000   0.000000
    16  H   -0.044543   0.006316   0.369220   0.592784  -0.000000   0.000000
    17  C    0.000000  -0.000000   0.000000  -0.000000   4.851914   0.365073
    18  H   -0.000000   0.000000   0.000000   0.000000   0.365073   0.604324
    19  C    0.000000   0.000000   0.000000   0.000000   0.642526  -0.054901
    20  H   -0.000000   0.000000   0.000000   0.000000  -0.044543   0.006316
    21  C    0.000000   0.000000   0.000000   0.000000  -0.027968  -0.009183
    22  H   -0.000000  -0.000000   0.000000   0.000000   0.002427   0.000125
    23  H    0.000000  -0.000000   0.000000   0.000000  -0.007088   0.004979
    24  H   -0.000000   0.000000   0.000000   0.000000  -0.005226   0.000556
    25  C   -0.027968  -0.009183   0.356680  -0.051794   0.000000   0.000000
    26  H    0.002427   0.000125  -0.027089  -0.002708  -0.000000  -0.000000
    27  H   -0.005226   0.000556  -0.032146   0.002064  -0.000000   0.000000
    28  H   -0.007088   0.004979  -0.033696   0.003950   0.000000  -0.000000
              19         20         21         22         23         24
     1  C   -0.020322  -0.009892   0.003891  -0.000134   0.000146  -0.000071
     2  H   -0.003703   0.004052   0.000049   0.000002   0.000005   0.000000
     3  C    0.001932   0.000510  -0.000186   0.000002   0.000007   0.000007
     4  H    0.000414   0.000014  -0.000007   0.000000  -0.000000   0.000000
     5  C   -0.000176  -0.000005   0.000001  -0.000000  -0.000000  -0.000000
     6  H   -0.000003   0.000001  -0.000000   0.000000  -0.000000  -0.000000
     7  C    0.000003  -0.000000  -0.000000   0.000000   0.000000  -0.000000
     8  H    0.000000  -0.000000  -0.000000   0.000000  -0.000000  -0.000000
     9  C   -0.000000   0.000000   0.000000  -0.000000   0.000000  -0.000000
    10  H    0.000000  -0.000000  -0.000000   0.000000   0.000000   0.000000
    11  C   -0.000000   0.000000  -0.000000   0.000000   0.000000   0.000000
    12  H    0.000000   0.000000  -0.000000   0.000000   0.000000   0.000000
    13  C    0.000000  -0.000000   0.000000  -0.000000   0.000000  -0.000000
    14  H    0.000000   0.000000   0.000000  -0.000000  -0.000000   0.000000
    15  C    0.000000   0.000000   0.000000   0.000000   0.000000   0.000000
    16  H    0.000000   0.000000   0.000000   0.000000   0.000000   0.000000
    17  C    0.642526  -0.044543  -0.027968   0.002427  -0.007088  -0.005226
    18  H   -0.054901   0.006316  -0.009183   0.000125   0.004979   0.000556
    19  C    4.926584   0.369220   0.356680  -0.027089  -0.033696  -0.032146
    20  H    0.369220   0.592784  -0.051794  -0.002708   0.003950   0.002064
    21  C    0.356680  -0.051794   5.088882   0.372044   0.381304   0.374223
    22  H   -0.027089  -0.002708   0.372044   0.561622  -0.028568  -0.031991
    23  H   -0.033696   0.003950   0.381304  -0.028568   0.547211  -0.028605
    24  H   -0.032146   0.002064   0.374223  -0.031991  -0.028605   0.553806
    25  C    0.000000   0.000000   0.000000   0.000000   0.000000   0.000000
    26  H    0.000000   0.000000   0.000000   0.000000   0.000000   0.000000
    27  H    0.000000   0.000000   0.000000   0.000000   0.000000   0.000000
    28  H    0.000000   0.000000   0.000000   0.000000   0.000000   0.000000
              25         26         27         28
     1  C   -0.000000   0.000000   0.000000   0.000000
     2  H   -0.000000   0.000000   0.000000   0.000000
     3  C    0.000000  -0.000000  -0.000000   0.000000
     4  H   -0.000000   0.000000   0.000000   0.000000
     5  C   -0.000000   0.000000  -0.000000   0.000000
     6  H   -0.000000   0.000000  -0.000000  -0.000000
     7  C    0.000001  -0.000000  -0.000000  -0.000000
     8  H   -0.000000   0.000000  -0.000000  -0.000000
     9  C   -0.000186   0.000002   0.000007   0.000007
    10  H   -0.000007   0.000000   0.000000  -0.000000
    11  C    0.003891  -0.000134  -0.000071   0.000146
    12  H    0.000049   0.000002   0.000000   0.000005
    13  C   -0.027968   0.002427  -0.005226  -0.007088
    14  H   -0.009183   0.000125   0.000556   0.004979
    15  C    0.356680  -0.027089  -0.032146  -0.033696
    16  H   -0.051794  -0.002708   0.002064   0.003950
    17  C    0.000000  -0.000000  -0.000000   0.000000
    18  H    0.000000  -0.000000   0.000000  -0.000000
    19  C    0.000000   0.000000   0.000000   0.000000
    20  H    0.000000   0.000000   0.000000   0.000000
    21  C    0.000000   0.000000   0.000000   0.000000
    22  H    0.000000   0.000000   0.000000   0.000000
    23  H    0.000000   0.000000   0.000000   0.000000
    24  H    0.000000   0.000000   0.000000   0.000000
    25  C    5.088882   0.372044   0.374223   0.381304
    26  H    0.372044   0.561622  -0.031991  -0.028568
    27  H    0.374223  -0.031991   0.553806  -0.028605
    28  H    0.381304  -0.028568  -0.028605   0.547211
 Mulliken charges:
               1
     1  C   -0.128860
     2  H    0.126985
     3  C   -0.132666
     4  H    0.126483
     5  C   -0.130878
     6  H    0.127122
     7  C   -0.130878
     8  H    0.127122
     9  C   -0.132666
    10  H    0.126483
    11  C   -0.128860
    12  H    0.126985
    13  C   -0.110030
    14  H    0.123067
    15  C   -0.125322
    16  H    0.130031
    17  C   -0.110030
    18  H    0.123067
    19  C   -0.125322
    20  H    0.130031
    21  C   -0.487935
    22  H    0.154268
    23  H    0.160354
    24  H    0.167381
    25  C   -0.487935
    26  H    0.154268
    27  H    0.167381
    28  H    0.160354
 Sum of Mulliken charges =  -0.00000
 Mulliken charges with hydrogens summed into heavy atoms:
               1
     1  C   -0.001875
     3  C   -0.006183
     5  C   -0.003756
     7  C   -0.003756
     9  C   -0.006183
    11  C   -0.001875
    13  C    0.013037
    15  C    0.004709
    17  C    0.013037
    19  C    0.004709
    21  C   -0.005931
    25  C   -0.005931
 Electronic spatial extent (au):  <R**2>=           6718.8580
 Charge=             -0.0000 electrons
 Dipole moment (field-independent basis, Debye):
    X=             -0.0000    Y=             -0.0000    Z=             -0.0000  Tot=              0.0000
 Quadrupole moment (field-independent basis, Debye-Ang):
   XX=            -60.5323   YY=            -66.0288   ZZ=            -79.2837
   XY=             -0.0515   XZ=              0.3942   YZ=              0.0122
 Traceless Quadrupole moment (field-independent basis, Debye-Ang):
   XX=              8.0827   YY=              2.5861   ZZ=            -10.6688
   XY=             -0.0515   XZ=              0.3942   YZ=              0.0122
 Octapole moment (field-independent basis, Debye-Ang**2):
  XXX=             -0.0000  YYY=              0.0000  ZZZ=              0.0000  XYY=             -0.0000
  XXY=             -0.0000  XXZ=             -0.0000  XZZ=              0.0000  YZZ=             -0.0000
  YYZ=             -0.0000  XYZ=              0.0004
 Hexadecapole moment (field-independent basis, Debye-Ang**3):
 XXXX=          -8246.2573 YYYY=           -206.0354 ZZZZ=            -95.0309 XXXY=            -38.3665
 XXXZ=             12.2401 YYYX=             -4.1241 YYYZ=             -1.0743 ZZZX=              8.1252
 ZZZY=              0.4673 XXYY=          -1437.3185 XXZZ=          -1568.6335 YYZZ=            -54.9649
 XXYZ=              5.9171 YYXZ=             -5.4974 ZZXY=              5.4487
 N-N= 5.442284630227D+02 E-N=-2.167671618412D+03  KE= 4.618898064747D+02
 No NMR shielding tensors so no spin-rotation constants.
 Leave Link  601 at Mon Jun  7 00:36:47 2021, MaxMem=    33554432 cpu:         0.2
 (Enter /opt/app/gaussian09/e01/g09/l701.exe)
 Compute integral first derivatives.
 ... and contract with generalized density number  0.
 Leave Link  701 at Mon Jun  7 00:36:48 2021, MaxMem=    33554432 cpu:         0.2
 (Enter /opt/app/gaussian09/e01/g09/l702.exe)
 L702 exits ... SP integral derivatives will be done elsewhere.
 Leave Link  702 at Mon Jun  7 00:36:49 2021, MaxMem=    33554432 cpu:         0.0
 (Enter /opt/app/gaussian09/e01/g09/l703.exe)
 Compute integral first derivatives, UseDBF=F ICtDFT=           0.
 Integral derivatives from FoFJK, PRISM(SPDF).
 Calling FoFJK, ICntrl=      2127 FMM=F ISym2X=0 I1Cent= 0 IOpClX= 0 NMat=1 NMatS=1 NMatT=0.
 FoFJK:  IHMeth= 1 ICntrl=    2127 DoSepK=F KAlg= 0 I1Cent=   0 FoldK=F
 IRaf=         0 NMat=   1 IRICut=       1 DoRegI=T DoRafI=F ISym2E= 0.
 FoFCou: FMM=F IPFlag=           0 FMFlag=      100000 FMFlg1=         800
         NFxFlg=           0 DoJE=F BraDBF=F KetDBF=F FulRan=T
         wScrn=  0.000000 ICntrl=    2127 IOpCl=  0 I1Cent=           0 NGrid=           0
         NMat0=    1 NMatS0=      1 NMatT0=    0 NMatD0=    1 NMtDS0=    0 NMtDT0=    0
 Symmetry not used in FoFCou.
 Leave Link  703 at Mon Jun  7 00:37:22 2021, MaxMem=    33554432 cpu:        33.1
 (Enter /opt/app/gaussian09/e01/g09/l716.exe)
 Dipole        =-2.10368723D-07-3.14991920D-07-5.22521828D-07
 ***** Axes restored to original set *****
 -------------------------------------------------------------------
 Center     Atomic                   Forces (Hartrees/Bohr)
 Number     Number              X              Y              Z
 -------------------------------------------------------------------
      1        6           0.058356235   -0.027126936   -0.010594023
      2        1          -0.011768672   -0.005191203    0.001837995
      3        6          -0.059236166    0.029139302    0.011307934
      4        1           0.011814437    0.005226282   -0.001825768
      5        6           0.058729078   -0.029960453   -0.011323710
      6        1          -0.011790772   -0.005181298    0.001837859
      7        6          -0.058729064    0.029960450    0.011323803
      8        1           0.011790801    0.005181291   -0.001837698
      9        6           0.059236040   -0.029139279   -0.011308682
     10        1          -0.011814385   -0.005226293    0.001826082
     11        6          -0.058356082    0.027126899    0.010594978
     12        1           0.011768672    0.005191204   -0.001838004
     13        6           0.064087768   -0.021921265   -0.011471222
     14        1          -0.012121776   -0.005272392    0.002463422
     15        6          -0.041163242    0.000373250    0.008338854
     16        1           0.012175234    0.002227086   -0.002997366
     17        6          -0.064088032    0.021921334    0.011469654
     18        1           0.012121852    0.005272379   -0.002463075
     19        6           0.041163468   -0.000373302   -0.008337832
     20        1          -0.012175299   -0.002227081    0.002997180
     21        6          -0.025891656    0.030789737    0.003442919
     22        1          -0.007622340   -0.015133126   -0.006475226
     23        1           0.014112314    0.000098429   -0.009113906
     24        1           0.006389323   -0.010127249    0.015372836
     25        6           0.025891572   -0.030789705   -0.003443568
     26        1           0.007622484    0.015133138    0.006475023
     27        1          -0.006389710    0.010127236   -0.015372699
     28        1          -0.014112081   -0.000098434    0.009114240
 -------------------------------------------------------------------
 Cartesian Forces:  Max     0.064088032 RMS     0.023487775
 Leave Link  716 at Mon Jun  7 00:37:23 2021, MaxMem=    33554432 cpu:         0.0
 (Enter /opt/app/gaussian09/e01/g09/l103.exe)

 GradGradGradGradGradGradGradGradGradGradGradGradGradGradGradGradGradGrad
 Berny optimization.
 FormGI is forming the generalized inverse of G from B-inverse, IUseBI=4.
 Internal  Forces:  Max     0.046820499 RMS     0.011434110
 Search for a local minimum.
 Step number   1 out of a maximum of  127
 All quantities printed in internal units (Hartrees-Bohrs-Radians)
 RMS Force = .11434D-01 SwitMx=.10000D-02 MixMth= 1
 Mixed Optimization -- RFO/linear search
 Second derivative matrix not updated -- first step.
 ITU=  0
     Eigenvalues ---    0.00237   0.00237   0.00237   0.00237   0.00237
     Eigenvalues ---    0.00237   0.01215   0.01215   0.01459   0.01459
     Eigenvalues ---    0.01459   0.01459   0.01459   0.01459   0.01459
     Eigenvalues ---    0.01459   0.02681   0.02681   0.02681   0.02681
     Eigenvalues ---    0.02681   0.07243   0.07243   0.07243   0.07243
     Eigenvalues ---    0.16000   0.16000   0.16000   0.16000   0.16000
     Eigenvalues ---    0.16000   0.16000   0.16000   0.16000   0.16000
     Eigenvalues ---    0.16000   0.16000   0.16000   0.16000   0.16000
     Eigenvalues ---    0.16000   0.22000   0.22000   0.22000   0.22000
     Eigenvalues ---    0.22000   0.22000   0.22000   0.22000   0.22000
     Eigenvalues ---    0.22000   0.28519   0.28519   0.28519   0.28519
     Eigenvalues ---    0.28519   0.28519   0.37230   0.37230   0.37230
     Eigenvalues ---    0.37230   0.37230   0.37230   0.37230   0.37230
     Eigenvalues ---    0.37230   0.37230   0.37230   0.37230   0.37230
     Eigenvalues ---    0.37230   0.37230   0.37230   0.53930   0.53930
     Eigenvalues ---    0.53930   0.53930   0.53930
 RFO step:  Lambda=-4.66958129D-02 EMin= 2.36823968D-03
 Linear search not attempted -- first point.
 Maximum step size (   0.300) exceeded in Quadratic search.
    -- Step size scaled by   0.783
 Iteration  1 RMS(Cart)=  0.04468331 RMS(Int)=  0.00040247
 Iteration  2 RMS(Cart)=  0.00138865 RMS(Int)=  0.00003313
 Iteration  3 RMS(Cart)=  0.00000012 RMS(Int)=  0.00003313
 ITry= 1 IFail=0 DXMaxC= 1.78D-01 DCOld= 1.00D+10 DXMaxT= 3.00D-01 DXLimC= 3.00D+00 Rises=F
 Variable       Old X    -DE/DX   Delta X   Delta X   Delta X     New X
                                 (Linear)    (Quad)   (Total)
    R1        2.02201   0.01193   0.00000   0.02228   0.02228   2.04429
    R2        2.56096  -0.00352   0.00000  -0.00471  -0.00471   2.55625
    R3        2.91018  -0.04456   0.00000  -0.10508  -0.10508   2.80510
    R4        2.02201   0.01197   0.00000   0.02236   0.02236   2.04437
    R5        2.91018  -0.04682   0.00000  -0.11041  -0.11041   2.79977
    R6        2.02201   0.01195   0.00000   0.02232   0.02232   2.04433
    R7        2.56096  -0.00261   0.00000  -0.00349  -0.00349   2.55747
    R8        2.02201   0.01195   0.00000   0.02232   0.02232   2.04433
    R9        2.91018  -0.04682   0.00000  -0.11041  -0.11041   2.79977
   R10        2.02201   0.01197   0.00000   0.02236   0.02236   2.04437
   R11        2.56096  -0.00352   0.00000  -0.00471  -0.00471   2.55625
   R12        2.02201   0.01193   0.00000   0.02228   0.02228   2.04429
   R13        2.91018  -0.04456   0.00000  -0.10508  -0.10508   2.80510
   R14        2.02201   0.01238   0.00000   0.02313   0.02313   2.04514
   R15        2.56096  -0.01064   0.00000  -0.01422  -0.01422   2.54674
   R16        2.02201   0.01252   0.00000   0.02338   0.02338   2.04539
   R17        2.91018  -0.01162   0.00000  -0.02741  -0.02741   2.88277
   R18        2.02201   0.01238   0.00000   0.02313   0.02313   2.04514
   R19        2.56096  -0.01064   0.00000  -0.01422  -0.01422   2.54674
   R20        2.02201   0.01252   0.00000   0.02338   0.02338   2.04539
   R21        2.91018  -0.01162   0.00000  -0.02741  -0.02741   2.88277
   R22        2.02201   0.01757   0.00000   0.03281   0.03281   2.05482
   R23        2.02201   0.01658   0.00000   0.03097   0.03097   2.05298
   R24        2.02201   0.01901   0.00000   0.03551   0.03551   2.05752
   R25        2.02201   0.01757   0.00000   0.03281   0.03281   2.05482
   R26        2.02201   0.01901   0.00000   0.03551   0.03551   2.05752
   R27        2.02201   0.01658   0.00000   0.03097   0.03097   2.05298
    A1        2.09440  -0.00103   0.00000   0.00141   0.00141   2.09581
    A2        2.09440  -0.01144   0.00000  -0.03801  -0.03801   2.05638
    A3        2.09440   0.01247   0.00000   0.03660   0.03660   2.13099
    A4        2.09440  -0.00087   0.00000   0.00192   0.00192   2.09632
    A5        2.09440   0.01222   0.00000   0.03585   0.03585   2.13025
    A6        2.09440  -0.01135   0.00000  -0.03777  -0.03777   2.05662
    A7        2.09440  -0.01135   0.00000  -0.03773  -0.03773   2.05667
    A8        2.09440   0.01230   0.00000   0.03610   0.03610   2.13050
    A9        2.09440  -0.00096   0.00000   0.00162   0.00162   2.09602
   A10        2.09440  -0.00096   0.00000   0.00162   0.00162   2.09602
   A11        2.09440   0.01230   0.00000   0.03610   0.03610   2.13050
   A12        2.09440  -0.01135   0.00000  -0.03773  -0.03773   2.05667
   A13        2.09440  -0.01135   0.00000  -0.03777  -0.03777   2.05662
   A14        2.09440   0.01222   0.00000   0.03585   0.03585   2.13025
   A15        2.09440  -0.00087   0.00000   0.00192   0.00192   2.09632
   A16        2.09440  -0.00103   0.00000   0.00141   0.00141   2.09581
   A17        2.09440   0.01247   0.00000   0.03660   0.03660   2.13099
   A18        2.09440  -0.01144   0.00000  -0.03801  -0.03801   2.05638
   A19        2.09440  -0.01149   0.00000  -0.03822  -0.03822   2.05618
   A20        2.09440   0.01246   0.00000   0.03656   0.03656   2.13096
   A21        2.09440  -0.00096   0.00000   0.00165   0.00165   2.09605
   A22        2.09440  -0.00472   0.00000  -0.01200  -0.01200   2.08240
   A23        2.09440   0.01377   0.00000   0.04041   0.04041   2.13480
   A24        2.09440  -0.00905   0.00000  -0.02841  -0.02842   2.06598
   A25        2.09440  -0.01149   0.00000  -0.03822  -0.03822   2.05618
   A26        2.09440   0.01246   0.00000   0.03656   0.03656   2.13096
   A27        2.09440  -0.00096   0.00000   0.00165   0.00165   2.09605
   A28        2.09440  -0.00472   0.00000  -0.01200  -0.01200   2.08240
   A29        2.09440   0.01377   0.00000   0.04041   0.04041   2.13480
   A30        2.09440  -0.00905   0.00000  -0.02841  -0.02842   2.06598
   A31        1.91063   0.00508   0.00000   0.01935   0.01923   1.92987
   A32        1.91063   0.00203   0.00000   0.00812   0.00803   1.91867
   A33        1.91063   0.00398   0.00000   0.01454   0.01445   1.92508
   A34        1.91063  -0.00307   0.00000  -0.01052  -0.01063   1.90000
   A35        1.91063  -0.00493   0.00000  -0.01958  -0.01970   1.89094
   A36        1.91063  -0.00310   0.00000  -0.01192  -0.01198   1.89865
   A37        1.91063   0.00508   0.00000   0.01935   0.01923   1.92987
   A38        1.91063   0.00399   0.00000   0.01454   0.01445   1.92508
   A39        1.91063   0.00203   0.00000   0.00812   0.00803   1.91867
   A40        1.91063  -0.00493   0.00000  -0.01958  -0.01970   1.89094
   A41        1.91063  -0.00307   0.00000  -0.01052  -0.01063   1.90000
   A42        1.91063  -0.00310   0.00000  -0.01192  -0.01198   1.89865
    D1       -3.14159  -0.00000   0.00000   0.00004   0.00004  -3.14155
    D2        0.00000  -0.00001   0.00000  -0.00003  -0.00003  -0.00003
    D3        0.00000  -0.00003   0.00000  -0.00040  -0.00040  -0.00040
    D4       -3.14159  -0.00004   0.00000  -0.00047  -0.00048   3.14112
    D5       -3.14159   0.00001   0.00000   0.00017   0.00017  -3.14142
    D6        0.00000  -0.00001   0.00000  -0.00001  -0.00001  -0.00000
    D7        0.00000   0.00004   0.00000   0.00061   0.00060   0.00061
    D8       -3.14159   0.00003   0.00000   0.00043   0.00043  -3.14116
    D9        0.00000   0.00000   0.00000   0.00001   0.00001   0.00002
   D10       -3.14159  -0.00000   0.00000  -0.00003  -0.00003   3.14157
   D11       -3.14159  -0.00000   0.00000  -0.00006  -0.00006   3.14154
   D12        0.00000  -0.00001   0.00000  -0.00011  -0.00010  -0.00010
   D13        0.00000   0.00000   0.00000   0.00004   0.00004   0.00005
   D14       -3.14159  -0.00000   0.00000  -0.00000  -0.00000  -3.14159
   D15       -3.14159  -0.00000   0.00000  -0.00000  -0.00000  -3.14159
   D16        0.00000  -0.00000   0.00000  -0.00005  -0.00005  -0.00004
   D17        0.00000   0.00001   0.00000   0.00010   0.00010   0.00011
   D18       -3.14159   0.00000   0.00000   0.00003   0.00003  -3.14156
   D19       -3.14159   0.00000   0.00000   0.00006   0.00006  -3.14153
   D20        0.00000  -0.00000   0.00000  -0.00002  -0.00002  -0.00001
   D21        0.00000   0.00001   0.00000   0.00003   0.00003   0.00003
   D22       -3.14159   0.00004   0.00000   0.00047   0.00048  -3.14111
   D23       -3.14159  -0.00000   0.00000  -0.00004  -0.00005   3.14155
   D24        0.00000   0.00003   0.00000   0.00040   0.00040   0.00040
   D25        0.00000  -0.00004   0.00000  -0.00061  -0.00060  -0.00060
   D26       -3.14159  -0.00003   0.00000  -0.00043  -0.00043   3.14117
   D27       -3.14159  -0.00001   0.00000  -0.00017  -0.00017   3.14143
   D28        0.00000   0.00001   0.00000   0.00001   0.00001   0.00001
   D29        0.00000  -0.00037   0.00000  -0.00359  -0.00358  -0.00357
   D30       -3.14159  -0.00069   0.00000  -0.00780  -0.00781   3.13379
   D31       -3.14159  -0.00036   0.00000  -0.00341  -0.00340   3.13820
   D32        0.00000  -0.00068   0.00000  -0.00762  -0.00763  -0.00763
   D33        2.61799  -0.00013   0.00000  -0.00589  -0.00590   2.61209
   D34       -1.57080  -0.00062   0.00000  -0.00911  -0.00910  -1.57989
   D35        0.52360  -0.00073   0.00000  -0.00983  -0.00985   0.51374
   D36       -0.52360  -0.00045   0.00000  -0.01010  -0.01010  -0.53369
   D37        1.57080  -0.00094   0.00000  -0.01332  -0.01329   1.55751
   D38       -2.61799  -0.00104   0.00000  -0.01404  -0.01405  -2.63204
   D39       -0.00000   0.00037   0.00000   0.00359   0.00358   0.00358
   D40        3.14159   0.00069   0.00000   0.00780   0.00781  -3.13379
   D41        3.14159   0.00036   0.00000   0.00341   0.00340  -3.13820
   D42       -0.00000   0.00068   0.00000   0.00762   0.00763   0.00763
   D43       -2.61799   0.00013   0.00000   0.00589   0.00590  -2.61209
   D44       -0.52360   0.00073   0.00000   0.00983   0.00985  -0.51374
   D45        1.57080   0.00062   0.00000   0.00911   0.00910   1.57989
   D46        0.52360   0.00045   0.00000   0.01010   0.01010   0.53369
   D47        2.61799   0.00105   0.00000   0.01404   0.01405   2.63204
   D48       -1.57080   0.00094   0.00000   0.01332   0.01329  -1.55751
         Item               Value     Threshold  Converged?
 Maximum Force            0.046820     0.000450     NO 
 RMS     Force            0.011434     0.000300     NO 
 Maximum Displacement     0.177651     0.001800     NO 
 RMS     Displacement     0.045729     0.001200     NO 
 Predicted change in Energy=-2.438489D-02
 Lowest energy point so far.  Saving SCF results.
 GradGradGradGradGradGradGradGradGradGradGradGradGradGradGradGradGradGrad

 Leave Link  103 at Mon Jun  7 00:37:23 2021, MaxMem=    33554432 cpu:         0.0
 (Enter /opt/app/gaussian09/e01/g09/l202.exe)
                          Input orientation:                          
 ---------------------------------------------------------------------
 Center     Atomic      Atomic             Coordinates (Angstroms)
 Number     Number       Type             X           Y           Z
 ---------------------------------------------------------------------
      1          6           0       -2.820958   -1.817596    0.135998
      2          1           0       -3.885844   -1.853623    0.323062
      3          6           0       -2.184140   -0.626004    0.069717
      4          1           0       -1.119234   -0.589423   -0.117374
      5          6           0       -2.900033    0.659033    0.246448
      6          1           0       -3.964929    0.622507    0.433484
      7          6           0       -2.263202    1.851354    0.180224
      8          1           0       -1.198307    1.887880   -0.006814
      9          6           0       -2.979095    3.136390    0.356959
     10          1           0       -4.043999    3.099810    0.544058
     11          6           0       -2.342278    4.327983    0.290671
     12          1           0       -1.277394    4.364010    0.103593
     13          6           0       -3.058479    5.615995    0.468187
     14          1           0       -4.123827    5.579734    0.655177
     15          6           0       -2.423911    6.803116    0.402616
     16          1           0       -1.357593    6.824500    0.218125
     17          6           0       -2.104755   -3.105608   -0.041510
     18          1           0       -1.039404   -3.069348   -0.228482
     19          6           0       -2.739326   -4.292729    0.024047
     20          1           0       -3.805648   -4.314112    0.208517
     21          6           0       -2.006612   -5.619673   -0.147687
     22          1           0       -2.665624   -6.366352   -0.584190
     23          1           0       -1.146939   -5.486519   -0.798438
     24          1           0       -1.662240   -5.988624    0.817069
     25          6           0       -3.156623    8.130060    0.574362
     26          1           0       -2.497604    8.876741    1.010851
     27          1           0       -3.501013    8.499008   -0.390389
     28          1           0       -4.016284    7.996906    1.225129
 ---------------------------------------------------------------------
                    Distance matrix (angstroms):
                    1          2          3          4          5
     1  C    0.000000
     2  H    1.081792   0.000000
     3  C    1.352709   2.113535   0.000000
     4  H    2.113875   3.073486   1.081835   0.000000
     5  C    2.480352   2.700210   1.481572   2.205052   0.000000
     6  H    2.711323   2.479852   2.205065   3.141687   1.081813
     7  C    3.711366   4.047248   2.481081   2.711941   1.353354
     8  H    4.047709   4.618497   2.701358   2.481030   2.114256
     9  C    4.961433   5.071842   3.856173   4.191153   2.481081
    10  H    5.083623   4.960882   4.191153   4.754175   2.711941
    11  C    6.166134   6.371491   4.961433   5.083623   3.711366
    12  H    6.371491   6.746194   5.071842   4.960882   4.047248
    13  C    7.444800   7.516700   6.315520   6.527693   4.964448
    14  H    7.529111   7.444578   6.528119   6.905282   5.087046
[...]

            Population analysis using the SCF density.

 **********************************************************************

 Orbital symmetries:
       Occupied  (A) (A) (A) (A) (A) (A) (A) (A) (A) (A) (A) (A)
                 (A) (A) (A) (A) (A) (A) (A) (A) (A) (A) (A) (A)
                 (A) (A) (A) (A) (A) (A) (A) (A) (A) (A) (A) (A)
                 (A) (A) (A) (A) (A) (A) (A) (A)
       Virtual   (A) (A) (A) (A) (A) (A) (A) (A) (A) (A) (A) (A)
                 (A) (A) (A) (A) (A) (A) (A) (A) (A) (A) (A) (A)
                 (A) (A) (A) (A) (A) (A) (A) (A) (A) (A) (A) (A)
                 (A) (A) (A) (A) (A) (A) (A) (A) (A) (A) (A) (A)
                 (A) (A) (A) (A) (A) (A) (A) (A) (A) (A) (A) (A)
                 (A) (A) (A) (A) (A) (A) (A) (A) (A) (A) (A) (A)
                 (A) (A) (A) (A) (A) (A) (A) (A) (A) (A) (A) (A)
                 (A) (A) (A) (A) (A) (A) (A) (A) (A) (A) (A) (A)
                 (A) (A) (A) (A) (A) (A) (A) (A) (A) (A) (A) (A)
                 (A) (A) (A) (A) (A) (A) (A) (A) (A) (A) (A) (A)
                 (A) (A) (A) (A) (A) (A) (A) (A) (A) (A) (A) (A)
                 (A) (A) (A) (A) (A) (A) (A) (A) (A) (A) (A) (A)
                 (A) (A) (A) (A) (A) (A) (A) (A) (A) (A) (A) (A)
                 (A) (A) (A) (A) (A) (A) (A) (A) (A) (A) (A) (A)
 The electronic state is 1-A.
 Alpha  occ. eigenvalues --  -10.18906 -10.18906 -10.18720 -10.18713 -10.18707
 Alpha  occ. eigenvalues --  -10.18647 -10.18591 -10.18587 -10.18399 -10.18399
 Alpha  occ. eigenvalues --  -10.18331 -10.18331  -0.82153  -0.80910  -0.79007
 Alpha  occ. eigenvalues --   -0.76447  -0.73225  -0.69357  -0.66319  -0.60519
 Alpha  occ. eigenvalues --   -0.55953  -0.55851  -0.54820  -0.54019  -0.47826
 Alpha  occ. eigenvalues --   -0.46751  -0.45184  -0.43397  -0.41093  -0.41091
 Alpha  occ. eigenvalues --   -0.40963  -0.40644  -0.38054  -0.37472  -0.36211
 Alpha  occ. eigenvalues --   -0.36190  -0.35158  -0.34459  -0.34159  -0.33927
 Alpha  occ. eigenvalues --   -0.31707  -0.27989  -0.23220  -0.17802
 Alpha virt. eigenvalues --   -0.05821   0.00577   0.06252   0.09272   0.10039
 Alpha virt. eigenvalues --    0.10916   0.11520   0.11775   0.11814   0.13468
 Alpha virt. eigenvalues --    0.15137   0.15213   0.16127   0.16241   0.16396
 Alpha virt. eigenvalues --    0.17298   0.17317   0.17619   0.18227   0.20340
 Alpha virt. eigenvalues --    0.20580   0.24566   0.26224   0.30106   0.33427
 Alpha virt. eigenvalues --    0.35119   0.37132   0.38110   0.39963   0.41864
 Alpha virt. eigenvalues --    0.42126   0.44111   0.47389   0.49314   0.52240
 Alpha virt. eigenvalues --    0.52952   0.54510   0.56402   0.56457   0.56478
 Alpha virt. eigenvalues --    0.59225   0.59292   0.59298   0.59409   0.59717
 Alpha virt. eigenvalues --    0.60816   0.62409   0.62878   0.63743   0.64728
 Alpha virt. eigenvalues --    0.65196   0.66326   0.69491   0.70568   0.73069
 Alpha virt. eigenvalues --    0.73077   0.74914   0.75621   0.77563   0.77626
 Alpha virt. eigenvalues --    0.82321   0.84186   0.86287   0.86851   0.87071
 Alpha virt. eigenvalues --    0.87597   0.87628   0.88137   0.89438   0.89624
 Alpha virt. eigenvalues --    0.90146   0.90280   0.91673   0.91895   0.94340
 Alpha virt. eigenvalues --    0.94821   0.95989   0.95991   1.00345   1.04358
 Alpha virt. eigenvalues --    1.04487   1.05955   1.07771   1.11063   1.14708
 Alpha virt. eigenvalues --    1.16039   1.19952   1.22575   1.29425   1.31615
 Alpha virt. eigenvalues --    1.32826   1.32938   1.33753   1.34136   1.34254
 Alpha virt. eigenvalues --    1.36044   1.38677   1.40197   1.42623   1.43697
 Alpha virt. eigenvalues --    1.50349   1.51060   1.53488   1.56728   1.63197
 Alpha virt. eigenvalues --    1.69194   1.73691   1.77085   1.77379   1.83288
 Alpha virt. eigenvalues --    1.83332   1.85831   1.87846   1.88641   1.91619
 Alpha virt. eigenvalues --    1.91806   1.92071   1.93089   1.98204   1.99260
 Alpha virt. eigenvalues --    2.00210   2.01392   2.06536   2.11023   2.14221
 Alpha virt. eigenvalues --    2.15857   2.16007   2.17497   2.23017   2.25224
 Alpha virt. eigenvalues --    2.25253   2.29654   2.31901   2.32865   2.33247
 Alpha virt. eigenvalues --    2.35545   2.37918   2.38998   2.43031   2.44126
 Alpha virt. eigenvalues --    2.48320   2.48554   2.51445   2.51752   2.56828
 Alpha virt. eigenvalues --    2.63335   2.79781   2.81703   2.91182   2.91345
 Alpha virt. eigenvalues --    2.92075   2.93800   3.02496   3.02991   3.11708
 Alpha virt. eigenvalues --    3.11957   4.09572   4.10038   4.11170   4.13068
 Alpha virt. eigenvalues --    4.15845   4.18667   4.26621   4.31140   4.36145
 Alpha virt. eigenvalues --    4.42670   4.49865   4.55674
          Condensed to atoms (all electrons):
               1          2          3          4          5          6
     1  C    4.911101   0.362911   0.567884  -0.056479  -0.008205  -0.006164
     2  H    0.362911   0.616954  -0.055139   0.006211  -0.007979   0.005192
     3  C    0.567884  -0.055139   4.908767   0.364107   0.419535  -0.053868
     4  H   -0.056479   0.006211   0.364107   0.617607  -0.054000   0.005460
     5  C   -0.008205  -0.007979   0.419535  -0.054000   4.912329   0.363622
     6  H   -0.006164   0.005192  -0.053868   0.005460   0.363622   0.617100
     7  C    0.002490   0.000397  -0.008457  -0.006199   0.563770  -0.055729
     8  H    0.000397   0.000014  -0.007797   0.005186  -0.055729   0.006181
     9  C   -0.000228  -0.000002   0.003307   0.000279  -0.008457  -0.007797
    10  H   -0.000002   0.000001   0.000279   0.000009  -0.006199   0.005186
    11  C    0.000003  -0.000000  -0.000228  -0.000002   0.002490   0.000397
    12  H   -0.000000  -0.000000  -0.000002   0.000001   0.000397   0.000014
    13  C   -0.000000   0.000000   0.000002  -0.000000  -0.000221  -0.000002
    14  H    0.000000  -0.000000  -0.000000  -0.000000  -0.000002   0.000001
    15  C   -0.000000   0.000000  -0.000000   0.000000   0.000003  -0.000000
    16  H    0.000000   0.000000   0.000000  -0.000000  -0.000000  -0.000000
    17  C    0.428040  -0.053590  -0.009691  -0.007703   0.003320   0.000258
    18  H   -0.053319   0.005452  -0.006342   0.005254   0.000285   0.000009
    19  C   -0.017792  -0.006206   0.002928   0.000403  -0.000242  -0.000001
    20  H   -0.010421   0.005719   0.000461   0.000014  -0.000000   0.000001
    21  C    0.004226   0.000101  -0.000218  -0.000005   0.000002  -0.000000
    22  H   -0.000104  -0.000000   0.000004   0.000000  -0.000000   0.000000
    23  H    0.000192   0.000012   0.000006   0.000000   0.000000  -0.000000
    24  H   -0.000104  -0.000000   0.000004   0.000000  -0.000000   0.000000
    25  C    0.000000  -0.000000   0.000000   0.000000  -0.000000   0.000000
    26  H    0.000000   0.000000  -0.000000  -0.000000  -0.000000   0.000000
    27  H    0.000000   0.000000  -0.000000  -0.000000  -0.000000   0.000000
    28  H   -0.000000   0.000000   0.000000   0.000000   0.000000  -0.000000
               7          8          9         10         11         12
     1  C    0.002490   0.000397  -0.000228  -0.000002   0.000003  -0.000000
     2  H    0.000397   0.000014  -0.000002   0.000001  -0.000000  -0.000000
     3  C   -0.008457  -0.007797   0.003307   0.000279  -0.000228  -0.000002
     4  H   -0.006199   0.005186   0.000279   0.000009  -0.000002   0.000001
     5  C    0.563770  -0.055729  -0.008457  -0.006199   0.002490   0.000397
     6  H   -0.055729   0.006181  -0.007797   0.005186   0.000397   0.000014
     7  C    4.912329   0.363622   0.419535  -0.054000  -0.008205  -0.007979
     8  H    0.363622   0.617100  -0.053868   0.005460  -0.006164   0.005192
     9  C    0.419535  -0.053868   4.908767   0.364107   0.567884  -0.055139
    10  H   -0.054000   0.005460   0.364107   0.617607  -0.056479   0.006211
    11  C   -0.008205  -0.006164   0.567884  -0.056479   4.911101   0.362911
    12  H   -0.007979   0.005192  -0.055139   0.006211   0.362911   0.616954
    13  C    0.003320   0.000258  -0.009691  -0.007703   0.428040  -0.053590
    14  H    0.000285   0.000009  -0.006342   0.005254  -0.053319   0.005452
    15  C   -0.000242  -0.000001   0.002928   0.000403  -0.017792  -0.006206
    16  H   -0.000000   0.000001   0.000461   0.000014  -0.010421   0.005719
    17  C   -0.000221  -0.000002   0.000002  -0.000000  -0.000000   0.000000
    18  H   -0.000002   0.000001  -0.000000  -0.000000   0.000000  -0.000000
    19  C    0.000003  -0.000000  -0.000000   0.000000  -0.000000   0.000000
    20  H   -0.000000  -0.000000   0.000000  -0.000000   0.000000   0.000000
    21  C   -0.000000   0.000000   0.000000   0.000000   0.000000  -0.000000
    22  H   -0.000000   0.000000  -0.000000  -0.000000   0.000000   0.000000
    23  H    0.000000  -0.000000   0.000000   0.000000  -0.000000   0.000000
    24  H   -0.000000   0.000000  -0.000000  -0.000000   0.000000   0.000000
    25  C    0.000002  -0.000000  -0.000218  -0.000005   0.004226   0.000101
    26  H   -0.000000   0.000000   0.000004   0.000000  -0.000104  -0.000000
    27  H   -0.000000   0.000000   0.000004   0.000000  -0.000104  -0.000000
    28  H    0.000000  -0.000000   0.000006   0.000000   0.000192   0.000012
              13         14         15         16         17         18
     1  C   -0.000000   0.000000  -0.000000   0.000000   0.428040  -0.053319
     2  H    0.000000  -0.000000   0.000000   0.000000  -0.053590   0.005452
     3  C    0.000002  -0.000000  -0.000000   0.000000  -0.009691  -0.006342
     4  H   -0.000000  -0.000000   0.000000  -0.000000  -0.007703   0.005254
     5  C   -0.000221  -0.000002   0.000003  -0.000000   0.003320   0.000285
     6  H   -0.000002   0.000001  -0.000000  -0.000000   0.000258   0.000009
     7  C    0.003320   0.000285  -0.000242  -0.000000  -0.000221  -0.000002
     8  H    0.000258   0.000009  -0.000001   0.000001  -0.000002   0.000001
     9  C   -0.009691  -0.006342   0.002928   0.000461   0.000002  -0.000000
    10  H   -0.007703   0.005254   0.000403   0.000014  -0.000000  -0.000000
    11  C    0.428040  -0.053319  -0.017792  -0.010421  -0.000000   0.000000
    12  H   -0.053590   0.005452  -0.006206   0.005719   0.000000  -0.000000
    13  C    4.808594   0.361368   0.641147  -0.046648  -0.000000  -0.000000
    14  H    0.361368   0.620794  -0.054008   0.006622  -0.000000   0.000000
    15  C    0.641147  -0.054008   4.909278   0.364828   0.000000  -0.000000
    16  H   -0.046648   0.006622   0.364828   0.609172  -0.000000   0.000000
    17  C   -0.000000  -0.000000   0.000000  -0.000000   4.808594   0.361368
    18  H   -0.000000   0.000000  -0.000000   0.000000   0.361368   0.620794
    19  C    0.000000  -0.000000   0.000000   0.000000   0.641147  -0.054008
    20  H   -0.000000   0.000000   0.000000  -0.000000  -0.046648   0.006622
    21  C    0.000000   0.000000   0.000000   0.000000  -0.017709  -0.009820
    22  H   -0.000000  -0.000000   0.000000   0.000000  -0.000957   0.000117
    23  H    0.000000  -0.000000   0.000000   0.000000  -0.005533   0.006606
    24  H   -0.000000  -0.000000   0.000000   0.000000  -0.000953   0.000117
    25  C   -0.017709  -0.009820   0.363585  -0.056952   0.000000   0.000000
    26  H   -0.000957   0.000117  -0.030776  -0.000707  -0.000000  -0.000000
    27  H   -0.000953   0.000117  -0.030775  -0.000711  -0.000000  -0.000000
    28  H   -0.005533   0.006606  -0.035916   0.004629   0.000000  -0.000000
              19         20         21         22         23         24
     1  C   -0.017792  -0.010421   0.004226  -0.000104   0.000192  -0.000104
     2  H   -0.006206   0.005719   0.000101  -0.000000   0.000012  -0.000000
     3  C    0.002928   0.000461  -0.000218   0.000004   0.000006   0.000004
     4  H    0.000403   0.000014  -0.000005   0.000000   0.000000   0.000000
     5  C   -0.000242  -0.000000   0.000002  -0.000000   0.000000  -0.000000
     6  H   -0.000001   0.000001  -0.000000   0.000000  -0.000000   0.000000
     7  C    0.000003  -0.000000  -0.000000  -0.000000   0.000000  -0.000000
     8  H   -0.000000  -0.000000   0.000000   0.000000  -0.000000   0.000000
     9  C   -0.000000   0.000000   0.000000  -0.000000   0.000000  -0.000000
    10  H    0.000000  -0.000000   0.000000  -0.000000   0.000000  -0.000000
    11  C   -0.000000   0.000000   0.000000   0.000000  -0.000000   0.000000
    12  H    0.000000   0.000000  -0.000000   0.000000   0.000000   0.000000
    13  C    0.000000  -0.000000   0.000000  -0.000000   0.000000  -0.000000
    14  H   -0.000000   0.000000   0.000000  -0.000000  -0.000000  -0.000000
    15  C    0.000000   0.000000   0.000000   0.000000   0.000000   0.000000
    16  H    0.000000  -0.000000   0.000000   0.000000   0.000000   0.000000
    17  C    0.641147  -0.046648  -0.017709  -0.000957  -0.005533  -0.000953
    18  H   -0.054008   0.006622  -0.009820   0.000117   0.006606   0.000117
    19  C    4.909278   0.364828   0.363585  -0.030776  -0.035916  -0.030775
    20  H    0.364828   0.609172  -0.056952  -0.000707   0.004629  -0.000711
    21  C    0.363585  -0.056952   5.099582   0.366871   0.373939   0.366872
    22  H   -0.030776  -0.000707   0.366871   0.572687  -0.028136  -0.037078
    23  H   -0.035916   0.004629   0.373939  -0.028136   0.557963  -0.028138
    24  H   -0.030775  -0.000711   0.366872  -0.037078  -0.028138   0.572698
    25  C    0.000000   0.000000   0.000000   0.000000   0.000000   0.000000
    26  H    0.000000   0.000000   0.000000   0.000000   0.000000   0.000000
    27  H    0.000000   0.000000   0.000000   0.000000   0.000000   0.000000
    28  H    0.000000   0.000000   0.000000   0.000000   0.000000   0.000000
              25         26         27         28
     1  C    0.000000   0.000000   0.000000  -0.000000
     2  H   -0.000000   0.000000   0.000000   0.000000
     3  C    0.000000  -0.000000  -0.000000   0.000000
     4  H    0.000000  -0.000000  -0.000000   0.000000
     5  C   -0.000000  -0.000000  -0.000000   0.000000
     6  H    0.000000   0.000000   0.000000  -0.000000
     7  C    0.000002  -0.000000  -0.000000   0.000000
     8  H   -0.000000   0.000000   0.000000  -0.000000
     9  C   -0.000218   0.000004   0.000004   0.000006
    10  H   -0.000005   0.000000   0.000000   0.000000
    11  C    0.004226  -0.000104  -0.000104   0.000192
    12  H    0.000101  -0.000000  -0.000000   0.000012
    13  C   -0.017709  -0.000957  -0.000953  -0.005533
    14  H   -0.009820   0.000117   0.000117   0.006606
    15  C    0.363585  -0.030776  -0.030775  -0.035916
    16  H   -0.056952  -0.000707  -0.000711   0.004629
    17  C    0.000000  -0.000000  -0.000000   0.000000
    18  H    0.000000  -0.000000  -0.000000  -0.000000
    19  C    0.000000   0.000000   0.000000   0.000000
    20  H    0.000000   0.000000   0.000000   0.000000
    21  C    0.000000   0.000000   0.000000   0.000000
    22  H    0.000000   0.000000   0.000000   0.000000
    23  H    0.000000   0.000000   0.000000   0.000000
    24  H    0.000000   0.000000   0.000000   0.000000
    25  C    5.099582   0.366871   0.366872   0.373939
    26  H    0.366871   0.572687  -0.037078  -0.028136
    27  H    0.366872  -0.037078   0.572698  -0.028138
    28  H    0.373939  -0.028136  -0.028138   0.557963
 Mulliken charges:
               1
     1  C   -0.124425
     2  H    0.119952
     3  C   -0.125542
     4  H    0.119856
     5  C   -0.124715
     6  H    0.120139
     7  C   -0.124715
     8  H    0.120139
     9  C   -0.125542
    10  H    0.119856
    11  C   -0.124425
    12  H    0.119952
    13  C   -0.099719
    14  H    0.116867
    15  C   -0.106456
    16  H    0.123992
    17  C   -0.099719
    18  H    0.116867
    19  C   -0.106456
    20  H    0.123992
    21  C   -0.490474
    22  H    0.158080
    23  H    0.154376
    24  H    0.158069
    25  C   -0.490474
    26  H    0.158080
    27  H    0.158069
    28  H    0.154376
 Sum of Mulliken charges =  -0.00000
 Mulliken charges with hydrogens summed into heavy atoms:
               1
     1  C   -0.004472
     3  C   -0.005686
     5  C   -0.004577
     7  C   -0.004577
     9  C   -0.005686
    11  C   -0.004472
    13  C    0.017147
    15  C    0.017537
    17  C    0.017147
    19  C    0.017537
    21  C   -0.019949
    25  C   -0.019949
 Electronic spatial extent (au):  <R**2>=           6592.3049
 Charge=             -0.0000 electrons
 Dipole moment (field-independent basis, Debye):
    X=              0.0000    Y=             -0.0000    Z=              0.0000  Tot=              0.0000
 Quadrupole moment (field-independent basis, Debye-Ang):
   XX=            -58.1150   YY=            -67.6067   ZZ=            -79.1060
   XY=             -0.8976   XZ=              0.0000   YZ=              0.0000
 Traceless Quadrupole moment (field-independent basis, Debye-Ang):
   XX=             10.1609   YY=              0.6692   ZZ=            -10.8301
   XY=             -0.8976   XZ=              0.0000   YZ=              0.0000
 Octapole moment (field-independent basis, Debye-Ang**2):
  XXX=              0.0000  YYY=              0.0000  ZZZ=              0.0000  XYY=              0.0000
  XXY=             -0.0000  XXZ=              0.0000  XZZ=              0.0000  YZZ=             -0.0000
  YYZ=             -0.0000  XYZ=             -0.0000
 Hexadecapole moment (field-independent basis, Debye-Ang**3):
 XXXX=          -7903.0652 YYYY=           -203.4602 ZZZZ=            -95.2844 XXXY=            -57.5904
 XXXZ=              0.0023 YYYX=              0.6322 YYYZ=              0.0011 ZZZX=             -0.0032
 ZZZY=             -0.0004 XXYY=          -1438.1770 XXZZ=          -1540.3039 YYZZ=            -55.0484
 XXYZ=             -0.0034 YYXZ=              0.0046 ZZXY=             -2.1217
 N-N= 5.507651279589D+02 E-N=-2.180761017305D+03  KE= 4.621401815370D+02
 No NMR shielding tensors so no spin-rotation constants.
 Leave Link  601 at Mon Jun  7 01:04:09 2021, MaxMem=    33554432 cpu:         0.2
 (Enter /opt/app/gaussian09/e01/g09/l9999.exe)
 1\1\GINC-NB-0235\FOpt\RB3LYP\6-31G(d)\C12H16\ROOT\07-Jun-2021\0\\#p op
 t b3lyp/6-31g(d) geom=connectivity int=ultrafine\\Title Card Required\
 \0,1\C,-2.7925139982,-1.8265481225,0.181504313\H,-3.8414053822,-1.8754
 451546,0.4779893301\C,-2.2075394911,-0.6079912771,0.0516404351\H,-1.15
 85124073,-0.5606863061,-0.245045516\C,-2.8747048786,0.6449509384,0.278
 4087888\H,-3.923734823,0.5984825619,0.5749449636\C,-2.2885304966,1.865
 4358459,0.1482628979\H,-1.2395005397,1.9119042153,-0.1482732335\C,-2.9
 556958776,3.1183780668,0.3750312904\H,-4.0047230326,3.0710731071,0.671
 7169922\C,-2.3707212709,4.3369349019,0.2451677794\H,-1.321829801,4.385
 8319279,-0.0513169361\C,-3.0423607905,5.5960007344,0.4735518137\H,-4.0
 915946682,5.5435144673,0.7700046164\C,-2.4631028913,6.8057081923,0.344
 9116679\H,-1.4138899646,6.8516944448,0.0482055698\C,-2.1208744663,-3.0
 85613957,-0.0468796569\H,-1.0716406413,-3.0331276851,-0.3433326441\C,-
 2.7001322758,-4.2953214228,0.0817608258\H,-3.7493451361,-4.3413076795,
 0.3784671582\C,-2.0168512882,-5.6081290353,-0.1513840902\H,-2.51823891
 91,-6.1851747307,-0.9412282986\H,-0.9703263316,-5.4719675796,-0.444327
 6378\H,-2.0379903993,-6.2356723977,0.7508344796\C,-3.1463838496,8.1185
 157967,0.5780567121\H,-2.6449963383,8.6955613125,1.3679011281\H,-3.125
 2445315,8.7460593326,-0.3241617322\H,-4.1929088696,7.9823543421,0.8710
 000334\\Version=ES64L-G09RevE.01\State=1-A\HF=-466.8534435\RMSD=3.558e
 -09\RMSF=5.077e-06\Dipole=0.,0.,0.\Quadrupole=-0.1870585,7.5963564,-7.
 4092979,0.349386,-2.2237364,0.3665674\PG=C01 [X(C12H16)]\\@


 The number of Unix installations has grown to 10,
  with more expected.
                  -- The Unix Programmer's Manual,
                     2nd Edition, June, 1972.
 Job cpu time:       0 days  0 hours 29 minutes 58.0 seconds.
 File lengths (MBytes):  RWF=     30 Int=      0 D2E=      0 Chk=      5 Scr=      1
 Normal termination of Gaussian 09 at Mon Jun  7 01:04:15 2021.
