 Entering Gaussian System, Link 0=/opt/app/gaussian09/e01/g09/g09.exec
 Input=mini_5_pp_td.gjf
 Output=mini_5_pp_td.log
 Initial command:
 /opt/app/gaussian09/e01/g09/l1.exe "./Gau-64773.inp" -scrdir="./"
 Entering Link 1 = /opt/app/gaussian09/e01/g09/l1.exe PID=     64777.
  
 Copyright (c) 1988,1990,1992,1993,1995,1998,2003,2009,2015,
            Gaussian, Inc.  All Rights Reserved.
  
 This is part of the Gaussian(R) 09 program.  It is based on
 the Gaussian(R) 03 system (copyright 2003, Gaussian, Inc.),
 the Gaussian(R) 98 system (copyright 1998, Gaussian, Inc.),
 the Gaussian(R) 94 system (copyright 1995, Gaussian, Inc.),
 the Gaussian 92(TM) system (copyright 1992, Gaussian, Inc.),
 the Gaussian 90(TM) system (copyright 1990, Gaussian, Inc.),
 the Gaussian 88(TM) system (copyright 1988, Gaussian, Inc.),
 the Gaussian 86(TM) system (copyright 1986, Carnegie Mellon
 University), and the Gaussian 82(TM) system (copyright 1983,
 Carnegie Mellon University). Gaussian is a federally registered
 trademark of Gaussian, Inc.
  
 This software contains proprietary and confidential information,
 including trade secrets, belonging to Gaussian, Inc.
  
 This software is provided under written license and may be
 used, copied, transmitted, or stored only in accord with that
 written license.
  
 The following legend is applicable only to US Government
 contracts under FAR:
  
                    RESTRICTED RIGHTS LEGEND
  
 Use, reproduction and disclosure by the US Government is
 subject to restrictions as set forth in subparagraphs (a)
 and (c) of the Commercial Computer Software - Restricted
 Rights clause in FAR 52.227-19.
  
 Gaussian, Inc.
 340 Quinnipiac St., Bldg. 40, Wallingford CT 06492
  
  
 ---------------------------------------------------------------
 Warning -- This program may not be used in any manner that
 competes with the business of Gaussian, Inc. or will provide
 assistance to any competitor of Gaussian, Inc.  The licensee
 of this program is prohibited from giving any competitor of
 Gaussian, Inc. access to this program.  By using this program,
 the user acknowledges that Gaussian, Inc. is engaged in the
 business of creating and licensing software in the field of
 computational chemistry and represents and warrants to the
 licensee that it is not a competitor of Gaussian, Inc. and that
 it will not use this program in any manner prohibited above.
 ---------------------------------------------------------------
  

 Cite this work as:
 Gaussian 09, Revision E.01,
 M. J. Frisch, G. W. Trucks, H. B. Schlegel, G. E. Scuseria, 
 M. A. Robb, J. R. Cheeseman, G. Scalmani, V. Barone, B. Mennucci, 
 G. A. Petersson, H. Nakatsuji, M. Caricato, X. Li, H. P. Hratchian, 
 A. F. Izmaylov, J. Bloino, G. Zheng, J. L. Sonnenberg, M. Hada, 
 M. Ehara, K. Toyota, R. Fukuda, J. Hasegawa, M. Ishida, T. Nakajima, 
 Y. Honda, O. Kitao, H. Nakai, T. Vreven, J. A. Montgomery, Jr., 
 J. E. Peralta, F. Ogliaro, M. Bearpark, J. J. Heyd, E. Brothers, 
 K. N. Kudin, V. N. Staroverov, T. Keith, R. Kobayashi, J. Normand, 
 K. Raghavachari, A. Rendell, J. C. Burant, S. S. Iyengar, J. Tomasi, 
 M. Cossi, N. Rega, J. M. Millam, M. Klene, J. E. Knox, J. B. Cross, 
 V. Bakken, C. Adamo, J. Jaramillo, R. Gomperts, R. E. Stratmann, 
 O. Yazyev, A. J. Austin, R. Cammi, C. Pomelli, J. W. Ochterski, 
 R. L. Martin, K. Morokuma, V. G. Zakrzewski, G. A. Voth, 
 P. Salvador, J. J. Dannenberg, S. Dapprich, A. D. Daniels, 
 O. Farkas, J. B. Foresman, J. V. Ortiz, J. Cioslowski, 
 and D. J. Fox, Gaussian, Inc., Wallingford CT, 2013.
 
 ******************************************
 Gaussian 09:  ES64L-G09RevE.01 30-Nov-2015
                 7-Jun-2021 
 ******************************************
 %chk=mini_5_pp_td.chk
 -----------------------------------------------
 #p td b3lyp/6-31g(d) geom=connectivity pop=full
 -----------------------------------------------
 1/38=1,57=2/1;
 2/12=2,17=6,18=5,40=1/2;
 3/5=1,6=6,7=1,11=9,16=1,25=1,30=1,74=-5/1,2,8,3;
 4//1;
 5/5=2,38=5/2;
 8/6=1,10=2/1;
 9/42=1,70=2/14;
 6/7=3/1;
 99/5=1,9=1/99;
 Leave Link    1 at Mon Jun  7 10:25:04 2021, MaxMem=           0 cpu:         0.1
 (Enter /opt/app/gaussian09/e01/g09/l101.exe)
 -------------------
 Title Card Required
 -------------------
 Symbolic Z-matrix:
 Charge =  0 Multiplicity = 1
 C                     3.06559  -0.38046   0. 
 H                     3.04843  -1.47141  -0.00001 
 C                     1.88499   0.29044   0.00003 
 H                     1.90375   1.38148  -0.00006 
 C                     0.59123  -0.33612  -0.00002 
 H                     0.57164  -1.42707  -0.00009 
 C                    -0.59123   0.33612   0.00002 
 H                    -0.57164   1.42707   0.00009 
 C                    -1.88499  -0.29044  -0.00004 
 H                    -1.90375  -1.38148   0.00006 
 C                    -3.06559   0.38046  0. 
 H                    -3.04843   1.47141   0.00001 
 C                    -4.36576  -0.25047   0.0001 
 H                    -4.37936  -1.34196   0.00006 
 C                    -5.53788   0.41408   0. 
 H                    -5.51779   1.50522  -0.00002 
 C                     4.36576   0.25047  -0.0001 
 H                     4.37936   1.34196  -0.00006 
 C                     5.53788  -0.41408  0. 
 H                     5.51779  -1.50522   0.00002 
 C                     6.89246   0.22608   0.00003 
 H                     7.47771  -0.07638  -0.87987 
 H                     6.82228   1.31907   0.00031 
 H                     7.47781  -0.07679   0.87975 
 C                    -6.89246  -0.22608  -0.00003 
 H                    -7.47771   0.07638   0.87987 
 H                    -7.47781   0.07679  -0.87975 
 H                    -6.82228  -1.31907  -0.00031 
 
 NAtoms=     28 NQM=       28 NQMF=       0 NMMI=      0 NMMIF=      0
                NMic=       0 NMicF=      0.
                    Isotopes and Nuclear Properties:
 (Nuclear quadrupole moments (NQMom) in fm**2, nuclear magnetic moments (NMagM)
  in nuclear magnetons)

  Atom         1           2           3           4           5           6           7           8           9          10
 IAtWgt=          12           1          12           1          12           1          12           1          12           1
 AtmWgt=  12.0000000   1.0078250  12.0000000   1.0078250  12.0000000   1.0078250  12.0000000   1.0078250  12.0000000   1.0078250
 NucSpn=           0           1           0           1           0           1           0           1           0           1
 AtZEff=   0.0000000   0.0000000   0.0000000   0.0000000   0.0000000   0.0000000   0.0000000   0.0000000   0.0000000   0.0000000
 NQMom=    0.0000000   0.0000000   0.0000000   0.0000000   0.0000000   0.0000000   0.0000000   0.0000000   0.0000000   0.0000000
 NMagM=    0.0000000   2.7928460   0.0000000   2.7928460   0.0000000   2.7928460   0.0000000   2.7928460   0.0000000   2.7928460
 AtZNuc=   6.0000000   1.0000000   6.0000000   1.0000000   6.0000000   1.0000000   6.0000000   1.0000000   6.0000000   1.0000000

  Atom        11          12          13          14          15          16          17          18          19          20
 IAtWgt=          12           1          12           1          12           1          12           1          12           1
 AtmWgt=  12.0000000   1.0078250  12.0000000   1.0078250  12.0000000   1.0078250  12.0000000   1.0078250  12.0000000   1.0078250
 NucSpn=           0           1           0           1           0           1           0           1           0           1
 AtZEff=   0.0000000   0.0000000   0.0000000   0.0000000   0.0000000   0.0000000   0.0000000   0.0000000   0.0000000   0.0000000
 NQMom=    0.0000000   0.0000000   0.0000000   0.0000000   0.0000000   0.0000000   0.0000000   0.0000000   0.0000000   0.0000000
 NMagM=    0.0000000   2.7928460   0.0000000   2.7928460   0.0000000   2.7928460   0.0000000   2.7928460   0.0000000   2.7928460
 AtZNuc=   6.0000000   1.0000000   6.0000000   1.0000000   6.0000000   1.0000000   6.0000000   1.0000000   6.0000000   1.0000000

  Atom        21          22          23          24          25          26          27          28
 IAtWgt=          12           1           1           1          12           1           1           1
 AtmWgt=  12.0000000   1.0078250   1.0078250   1.0078250  12.0000000   1.0078250   1.0078250   1.0078250
 NucSpn=           0           1           1           1           0           1           1           1
 AtZEff=   0.0000000   0.0000000   0.0000000   0.0000000   0.0000000   0.0000000   0.0000000   0.0000000
 NQMom=    0.0000000   0.0000000   0.0000000   0.0000000   0.0000000   0.0000000   0.0000000   0.0000000
 NMagM=    0.0000000   2.7928460   2.7928460   2.7928460   0.0000000   2.7928460   2.7928460   2.7928460
 AtZNuc=   6.0000000   1.0000000   1.0000000   1.0000000   6.0000000   1.0000000   1.0000000   1.0000000
 Leave Link  101 at Mon Jun  7 10:25:04 2021, MaxMem=    33554432 cpu:         0.1
 (Enter /opt/app/gaussian09/e01/g09/l202.exe)
                          Input orientation:                          
 ---------------------------------------------------------------------
 Center     Atomic      Atomic             Coordinates (Angstroms)
 Number     Number       Type             X           Y           Z
 ---------------------------------------------------------------------
      1          6           0        3.065595   -0.380462    0.000003
      2          1           0        3.048434   -1.471412   -0.000014
      3          6           0        1.884989    0.290440    0.000035
      4          1           0        1.903753    1.381480   -0.000059
      5          6           0        0.591229   -0.336124   -0.000017
      6          1           0        0.571636   -1.427075   -0.000092
      7          6           0       -0.591229    0.336124    0.000016
      8          1           0       -0.571636    1.427075    0.000092
      9          6           0       -1.884989   -0.290440   -0.000035
     10          1           0       -1.903753   -1.381480    0.000058
     11          6           0       -3.065595    0.380462   -0.000003
     12          1           0       -3.048434    1.471412    0.000014
     13          6           0       -4.365762   -0.250468    0.000102
     14          1           0       -4.379357   -1.341956    0.000063
     15          6           0       -5.537880    0.414075    0.000002
     16          1           0       -5.517790    1.505218   -0.000022
     17          6           0        4.365762    0.250468   -0.000102
     18          1           0        4.379357    1.341956   -0.000063
     19          6           0        5.537880   -0.414075   -0.000002
     20          1           0        5.517790   -1.505218    0.000023
     21          6           0        6.892465    0.226077    0.000034
     22          1           0        7.477708   -0.076383   -0.879872
     23          1           0        6.822282    1.319075    0.000312
     24          1           0        7.477811   -0.076789    0.879749
     25          6           0       -6.892465   -0.226077   -0.000034
     26          1           0       -7.477708    0.076382    0.879873
     27          1           0       -7.477811    0.076789   -0.879748
     28          1           0       -6.822282   -1.319075   -0.000312
 ---------------------------------------------------------------------
                    Distance matrix (angstroms):
                    1          2          3          4          5
     1  C    0.000000
     2  H    1.091086   0.000000
     3  C    1.357918   2.111334   0.000000
     4  H    2.110524   3.073969   1.091200   0.000000
     5  C    2.474763   2.706795   1.437497   2.161685   0.000000
     6  H    2.704668   2.477196   2.162118   3.108458   1.091126
     7  C    3.726373   4.063783   2.476638   2.705125   1.360192
     8  H    4.061605   4.637470   2.706832   2.475809   2.112137
     9  C    4.951402   5.072806   3.814466   4.141241   2.476638
    10  H    5.069167   4.953004   4.141241   4.704365   2.705125
    11  C    6.178227   6.388332   4.951402   5.069167   3.726373
    12  H    6.388332   6.769935   5.072806   4.953004   4.063783
    13  C    7.432493   7.514054   6.274110   6.478431   4.957730
    14  H    7.506782   7.428919   6.473542   6.847961   5.071333
    15  C    8.640085   8.790897   7.423899   7.504251   6.174850
    16  H    8.788076   9.068656   7.501787   7.422574   6.380489
    17  C    1.445166   2.168000   2.481095   2.709367   3.819842
    18  H    2.166263   3.112298   2.706946   2.475919   4.143171
    19  C    2.472514   2.704682   3.720210   4.053504   4.947266
    20  H    2.697839   2.469587   4.052362   4.625396   5.063377
    21  C    3.874639   4.202147   5.007890   5.120762   6.326267
    22  H    4.509255   4.726386   5.673385   5.828242   6.947317
    23  H    4.123241   4.693479   5.043307   4.918924   6.447147
    24  H    4.509304   4.726345   5.673484   5.828442   6.947392
    25  C    9.959256  10.018600   8.792638   8.941906   7.484503
    26  H   10.589811  10.675651   9.406382   9.512590   8.127244
    27  H   10.589922  10.675800   9.406470   9.512614   8.127351
    28  H    9.932326   9.871891   8.854778   9.134368   7.478390
                    6          7          8          9         10
     6  H    0.000000
     7  C    2.112137   0.000000
     8  H    3.074612   1.091126   0.000000
     9  C    2.706832   1.437497   2.162118   0.000000
    10  H    2.475809   2.161685   3.108458   1.091200   0.000000
    11  C    4.061605   2.474763   2.704668   1.357918   2.110524
    12  H    4.637470   2.706795   2.477196   2.111334   3.073969
    13  C    5.075657   3.819842   4.148438   2.481095   2.709367
    14  H    4.951724   4.143171   4.708107   2.706946   2.475919
    15  C    6.380910   4.947266   5.068506   3.720210   4.053504
    16  H    6.758657   5.063377   4.946771   4.052362   4.625396
    17  C    4.148438   4.957730   5.075657   6.274110   6.478431
    18  H    4.708107   5.071333   4.951724   6.473542   6.847961
    19  C    5.068506   6.174850   6.380910   7.423899   7.504251
    20  H    4.946771   6.380489   6.758657   7.501787   7.422574
    21  C    6.533436   7.484503   7.560105   8.792638   8.941906
    22  H    7.091700   8.127244   8.235694   9.406382   9.512590
    23  H    6.827292   7.478390   7.394706   8.854778   9.134368
    24  H    7.091731   8.127351   8.235836   9.406470   9.512614
    25  C    7.560105   6.326267   6.533437   5.007890   5.120762
    26  H    8.235693   6.947317   7.091700   5.673385   5.828242
    27  H    8.235836   6.947392   7.091731   5.673484   5.828442
    28  H    7.394706   6.447147   6.827292   5.043307   4.918924
                   11         12         13         14         15
    11  C    0.000000
    12  H    1.091086   0.000000
    13  C    1.445166   2.168000   0.000000
    14  H    2.166263   3.112298   1.091573   0.000000
    15  C    2.472514   2.704682   1.347398   2.103764   0.000000
    16  H    2.697839   2.469587   2.099906   3.066339   1.091328
    17  C    7.432493   7.514054   8.745881   8.888920   9.904993
    18  H    7.506782   7.428919   8.888920   9.160701   9.960550
    19  C    8.640085   8.790897   9.904993   9.960550  11.106679
    20  H    8.788076   9.068656   9.962880   9.898493  11.221031
    21  C    9.959256  10.018600  11.268308  11.380364  12.431767
    22  H   10.589811  10.675652  11.877391  11.956836  13.054511
    23  H    9.932326   9.871891  11.297600  11.513374  12.393249
    24  H   10.589922  10.675800  11.877464  11.956878  13.054621
    25  C    3.874639   4.202147   2.526821   2.749709   1.498230
    26  H    4.509255   4.726386   3.250390   3.519308   2.156650
    27  H    4.509304   4.726345   3.250552   3.519564   2.156630
    28  H    4.123241   4.693479   2.678882   2.443032   2.157196
                   16         17         18         19         20
    16  H    0.000000
    17  C    9.962880   0.000000
    18  H    9.898493   1.091573   0.000000
    19  C   11.221031   1.347398   2.103764   0.000000
    20  H   11.438826   2.099906   3.066339   1.091328   0.000000
    21  C   12.476002   2.526821   2.749709   1.498230   2.210682
    22  H   13.120920   3.250390   3.519308   2.156650   2.580129
    23  H   12.341475   2.678882   2.443032   2.157196   3.111001
    24  H   13.121066   3.250552   3.519564   2.156630   2.579925
    25  C    2.210682  11.268308  11.380364  12.431767  12.476002
    26  H    2.580129  11.877391  11.956836  13.054511  13.120920
    27  H    2.579925  11.877464  11.956878  13.054621  13.121067
    28  H    3.111001  11.297600  11.513374  12.393249  12.341475
                   21         22         23         24         25
    21  C    0.000000
    22  H    1.099193   0.000000
    23  H    1.095249   1.775277   0.000000
    24  H    1.099207   1.759621   1.775265   0.000000
    25  C   13.792343  14.397861  13.801513  14.397956   0.000000
    26  H   14.397860  15.059365  14.380807  14.956303   1.099193
    27  H   14.397956  14.956303  14.380905  15.059550   1.099207
    28  H   13.801513  14.380807  13.897264  14.380905   1.095249
                   26         27         28
    26  H    0.000000
    27  H    1.759621   0.000000
    28  H    1.775277   1.775265   0.000000
 Stoichiometry    C12H16
 Framework group  CI[X(C12H16)]
 Deg. of freedom    39
 Full point group                 CI      NOp   2
 Largest Abelian subgroup         CI      NOp   2
 Largest concise Abelian subgroup CI      NOp   2
                         Standard orientation:                         
 ---------------------------------------------------------------------
 Center     Atomic      Atomic             Coordinates (Angstroms)
 Number     Number       Type             X           Y           Z
 ---------------------------------------------------------------------
      1          6           0        3.065595   -0.380462    0.000003
      2          1           0        3.048434   -1.471412   -0.000014
      3          6           0        1.884989    0.290440    0.000035
      4          1           0        1.903753    1.381480   -0.000059
      5          6           0        0.591229   -0.336124   -0.000017
      6          1           0        0.571636   -1.427075   -0.000092
      7          6           0       -0.591229    0.336124    0.000017
      8          1           0       -0.571636    1.427075    0.000092
      9          6           0       -1.884989   -0.290440   -0.000035
     10          1           0       -1.903753   -1.381480    0.000059
     11          6           0       -3.065595    0.380462   -0.000003
     12          1           0       -3.048434    1.471412    0.000014
     13          6           0       -4.365762   -0.250468    0.000102
     14          1           0       -4.379357   -1.341956    0.000063
     15          6           0       -5.537880    0.414075    0.000002
     16          1           0       -5.517790    1.505218   -0.000022
     17          6           0        4.365762    0.250468   -0.000102
     18          1           0        4.379357    1.341956   -0.000063
     19          6           0        5.537880   -0.414075   -0.000002
     20          1           0        5.517790   -1.505218    0.000022
     21          6           0        6.892465    0.226077    0.000034
     22          1           0        7.477708   -0.076383   -0.879872
     23          1           0        6.822282    1.319075    0.000312
     24          1           0        7.477811   -0.076789    0.879749
     25          6           0       -6.892465   -0.226077   -0.000034
     26          1           0       -7.477708    0.076383    0.879872
     27          1           0       -7.477811    0.076789   -0.879749
     28          1           0       -6.822282   -1.319075   -0.000312
 ---------------------------------------------------------------------
 Rotational constants (GHZ):     11.9725846      0.1629247      0.1610571
 Leave Link  202 at Mon Jun  7 10:25:04 2021, MaxMem=    33554432 cpu:         0.0
 (Enter /opt/app/gaussian09/e01/g09/l301.exe)
 Standard basis: 6-31G(d) (6D, 7F)
 Ernie: Thresh=  0.10000D-02 Tol=  0.10000D-05 Strict=F.
 There are   106 symmetry adapted cartesian basis functions of AG  symmetry.
 There are   106 symmetry adapted cartesian basis functions of AU  symmetry.
 There are   106 symmetry adapted basis functions of AG  symmetry.
 There are   106 symmetry adapted basis functions of AU  symmetry.
   212 basis functions,   400 primitive gaussians,   212 cartesian basis functions
    44 alpha electrons       44 beta electrons
       nuclear repulsion energy       550.7650861760 Hartrees.
 IExCor=  402 DFT=T Ex+Corr=B3LYP ExCW=0 ScaHFX=  0.200000
 ScaDFX=  0.800000  0.720000  1.000000  0.810000 ScalE2=  1.000000  1.000000
 IRadAn=      0 IRanWt=     -1 IRanGd=            0 ICorTp=0 IEmpDi=  4
 NAtoms=   28 NActive=   28 NUniq=   14 SFac= 4.00D+00 NAtFMM=   60 NAOKFM=F Big=F
 Integral buffers will be    131072 words long.
 Regular integral format.
 Two-electron integral symmetry is turned on.
 Leave Link  301 at Mon Jun  7 10:25:04 2021, MaxMem=    33554432 cpu:         0.0
 (Enter /opt/app/gaussian09/e01/g09/l302.exe)
 NPDir=0 NMtPBC=     1 NCelOv=     1 NCel=       1 NClECP=     1 NCelD=      1
         NCelK=      1 NCelE2=     1 NClLst=     1 CellRange=     0.0.
 One-electron integrals computed using PRISM.
 One-electron integral symmetry used in STVInt
 NBasis=   212 RedAO= T EigKep=  1.13D-03  NBF=   106   106
 NBsUse=   212 1.00D-06 EigRej= -1.00D+00 NBFU=   106   106
 Precomputing XC quadrature grid using
 IXCGrd= 4 IRadAn=           0 IRanWt=          -1 IRanGd=           0 AccXCQ= 0.00D+00.
 Generated NRdTot=       0 NPtTot=           0 NUsed=           0 NTot=          32
 NSgBfM=   205   205   205   205   205 MxSgAt=    28 MxSgA2=    28.
 Leave Link  302 at Mon Jun  7 10:25:05 2021, MaxMem=    33554432 cpu:         0.6
 (Enter /opt/app/gaussian09/e01/g09/l308.exe)
 Leave Link  308 at Mon Jun  7 10:25:05 2021, MaxMem=    33554432 cpu:         0.1
 (Enter /opt/app/gaussian09/e01/g09/l303.exe)
 DipDrv:  MaxL=1.
 Leave Link  303 at Mon Jun  7 10:25:05 2021, MaxMem=    33554432 cpu:         0.0
 (Enter /opt/app/gaussian09/e01/g09/l401.exe)
 ExpMin= 1.61D-01 ExpMax= 3.05D+03 ExpMxC= 4.57D+02 IAcc=1 IRadAn=         1 AccDes= 0.00D+00
 Harris functional with IExCor=  402 and IRadAn=       1 diagonalized for initial guess.
 HarFok:  IExCor=  402 AccDes= 0.00D+00 IRadAn=         1 IDoV= 1 UseB2=F ITyADJ=14
 ICtDFT=  3500011 ScaDFX=  1.000000  1.000000  1.000000  1.000000
 FoFCou: FMM=F IPFlag=           0 FMFlag=      100000 FMFlg1=           0
         NFxFlg=           0 DoJE=T BraDBF=F KetDBF=T FulRan=T
         wScrn=  0.000000 ICntrl=     500 IOpCl=  0 I1Cent=   200000004 NGrid=           0
         NMat0=    1 NMatS0=      1 NMatT0=    0 NMatD0=    1 NMtDS0=    0 NMtDT0=    0
 Petite list used in FoFCou.
 Harris En= -466.949442295285    
 JPrj=0 DoOrth=F DoCkMO=F.
 Initial guess orbital symmetries:
       Occupied  (AU) (AG) (AU) (AG) (AG) (AU) (AG) (AU) (AG) (AU)
                 (AU) (AG) (AG) (AU) (AG) (AU) (AG) (AU) (AG) (AU)
                 (AG) (AU) (AG) (AU) (AG) (AU) (AU) (AG) (AG) (AU)
                 (AU) (AG) (AG) (AU) (AG) (AU) (AG) (AU) (AG) (AU)
                 (AG) (AU) (AG) (AU)
       Virtual   (AG) (AU) (AG) (AU) (AG) (AU) (AG) (AU) (AG) (AU)
                 (AG) (AU) (AU) (AG) (AG) (AU) (AG) (AG) (AU) (AU)
                 (AG) (AU) (AG) (AU) (AG) (AG) (AU) (AU) (AU) (AG)
                 (AU) (AG) (AU) (AG) (AU) (AG) (AG) (AU) (AU) (AG)
                 (AG) (AU) (AG) (AU) (AU) (AG) (AG) (AU) (AG) (AU)
                 (AG) (AU) (AG) (AU) (AU) (AG) (AU) (AG) (AU) (AG)
                 (AG) (AU) (AG) (AU) (AU) (AU) (AG) (AG) (AG) (AU)
                 (AG) (AU) (AU) (AG) (AG) (AU) (AU) (AG) (AG) (AU)
                 (AG) (AU) (AU) (AG) (AU) (AG) (AG) (AU) (AU) (AG)
                 (AU) (AG) (AG) (AU) (AU) (AG) (AU) (AG) (AG) (AU)
                 (AU) (AG) (AG) (AU) (AU) (AG) (AU) (AG) (AU) (AU)
                 (AG) (AG) (AU) (AG) (AG) (AU) (AG) (AU) (AG) (AU)
                 (AG) (AU) (AU) (AG) (AU) (AG) (AU) (AG) (AG) (AU)
                 (AU) (AG) (AG) (AG) (AU) (AU) (AU) (AG) (AU) (AG)
                 (AG) (AU) (AU) (AG) (AG) (AU) (AG) (AU) (AG) (AU)
                 (AG) (AU) (AG) (AU) (AU) (AG) (AG) (AU) (AG) (AU)
                 (AG) (AU) (AG) (AU) (AG) (AU) (AG) (AU)
 The electronic state of the initial guess is 1-AG.
 Leave Link  401 at Mon Jun  7 10:25:06 2021, MaxMem=    33554432 cpu:         1.1
 (Enter /opt/app/gaussian09/e01/g09/l502.exe)
 Closed shell SCF:
 Using DIIS extrapolation, IDIIS=  1040.
 Integral symmetry usage will be decided dynamically.
 IVT=      156570 IEndB=      156570 NGot=    33554432 MDV=    33459659
 LenX=    33459659 LenY=    33414274
 Requested convergence on RMS density matrix=1.00D-08 within 128 cycles.
 Requested convergence on MAX density matrix=1.00D-06.
 Requested convergence on             energy=1.00D-06.
 No special actions if energy rises.
 Fock matrices will be formed incrementally for  20 cycles.
 Integral accuracy reduced to 1.0D-05 until final iterations.

 Cycle   1  Pass 0  IDiag  1:
 FoFJK:  IHMeth= 1 ICntrl=       0 DoSepK=F KAlg= 0 I1Cent=   0 FoldK=F
 IRaf= 660000000 NMat=   1 IRICut=       1 DoRegI=T DoRafI=F ISym2E= 1.
 FoFCou: FMM=F IPFlag=           0 FMFlag=      100000 FMFlg1=           0
         NFxFlg=           0 DoJE=F BraDBF=F KetDBF=F FulRan=T
         wScrn=  0.000000 ICntrl=       0 IOpCl=  0 I1Cent=           0 NGrid=           0
         NMat0=    1 NMatS0=      1 NMatT0=    0 NMatD0=    1 NMtDS0=    0 NMtDT0=    0
 Petite list used in FoFCou.
 E= -466.489898912386    
 DIIS: error= 4.64D-02 at cycle   1 NSaved=   1.
 NSaved= 1 IEnMin= 1 EnMin= -466.489898912386     IErMin= 1 ErrMin= 4.64D-02
 ErrMax= 4.64D-02  0.00D+00 EMaxC= 1.00D-01 BMatC= 3.16D-01 BMatP= 3.16D-01
 IDIUse=3 WtCom= 5.36D-01 WtEn= 4.64D-01
 Coeff-Com:  0.100D+01
 Coeff-En:   0.100D+01
 Coeff:      0.100D+01
 Gap=     0.118 Goal=   None    Shift=    0.000
 GapD=    0.118 DampG=1.000 DampE=0.500 DampFc=0.5000 IDamp=-1.
 Damping current iteration by 5.00D-01
 RMSDP=6.00D-03 MaxDP=1.32D-01              OVMax= 1.67D-01

 Cycle   2  Pass 0  IDiag  1:
 RMSU=  2.93D-03    CP:  9.71D-01
 E= -466.671378751767     Delta-E=       -0.181479839380 Rises=F Damp=T
 DIIS: error= 7.88D-03 at cycle   2 NSaved=   2.
 NSaved= 2 IEnMin= 2 EnMin= -466.671378751767     IErMin= 2 ErrMin= 7.88D-03
 ErrMax= 7.88D-03  0.00D+00 EMaxC= 1.00D-01 BMatC= 1.14D-02 BMatP= 3.16D-01
 IDIUse=3 WtCom= 9.21D-01 WtEn= 7.88D-02
 Coeff-Com: -0.246D-01 0.102D+01
 Coeff-En:   0.000D+00 0.100D+01
 Coeff:     -0.227D-01 0.102D+01
 Gap=     0.119 Goal=   None    Shift=    0.000
 RMSDP=1.00D-03 MaxDP=1.41D-02 DE=-1.81D-01 OVMax= 8.69D-02

 Cycle   3  Pass 0  IDiag  1:
 RMSU=  9.78D-04    CP:  9.65D-01  9.36D-01
 E= -466.852283671056     Delta-E=       -0.180904919290 Rises=F Damp=F
 DIIS: error= 2.21D-03 at cycle   3 NSaved=   3.
 NSaved= 3 IEnMin= 3 EnMin= -466.852283671056     IErMin= 3 ErrMin= 2.21D-03
 ErrMax= 2.21D-03  0.00D+00 EMaxC= 1.00D-01 BMatC= 1.08D-03 BMatP= 1.14D-02
 IDIUse=3 WtCom= 9.78D-01 WtEn= 2.21D-02
 Coeff-Com: -0.264D-01 0.178D+00 0.849D+00
 Coeff-En:   0.000D+00 0.000D+00 0.100D+01
 Coeff:     -0.258D-01 0.174D+00 0.852D+00
 Gap=     0.120 Goal=   None    Shift=    0.000
 RMSDP=2.31D-04 MaxDP=6.94D-03 DE=-1.81D-01 OVMax= 1.08D-02

 Cycle   4  Pass 0  IDiag  1:
 RMSU=  2.15D-04    CP:  9.65D-01  9.51D-01  9.26D-01
 E= -466.852874070249     Delta-E=       -0.000590399193 Rises=F Damp=F
 DIIS: error= 1.10D-03 at cycle   4 NSaved=   4.
 NSaved= 4 IEnMin= 4 EnMin= -466.852874070249     IErMin= 4 ErrMin= 1.10D-03
 ErrMax= 1.10D-03  0.00D+00 EMaxC= 1.00D-01 BMatC= 5.02D-04 BMatP= 1.08D-03
 IDIUse=3 WtCom= 9.89D-01 WtEn= 1.10D-02
 Coeff-Com: -0.108D-01 0.391D-01 0.436D+00 0.536D+00
 Coeff-En:   0.000D+00 0.000D+00 0.294D+00 0.706D+00
 Coeff:     -0.107D-01 0.386D-01 0.434D+00 0.538D+00
 Gap=     0.120 Goal=   None    Shift=    0.000
 RMSDP=1.07D-04 MaxDP=3.61D-03 DE=-5.90D-04 OVMax= 5.71D-03

 Cycle   5  Pass 0  IDiag  1:
 RMSU=  5.48D-05    CP:  9.64D-01  9.56D-01  9.40D-01  5.82D-01
 E= -466.853339317937     Delta-E=       -0.000465247687 Rises=F Damp=F
 DIIS: error= 3.60D-04 at cycle   5 NSaved=   5.
 NSaved= 5 IEnMin= 5 EnMin= -466.853339317937     IErMin= 5 ErrMin= 3.60D-04
 ErrMax= 3.60D-04  0.00D+00 EMaxC= 1.00D-01 BMatC= 2.67D-05 BMatP= 5.02D-04
 IDIUse=3 WtCom= 9.96D-01 WtEn= 3.60D-03
 Coeff-Com: -0.378D-02 0.975D-02 0.176D+00 0.271D+00 0.547D+00
 Coeff-En:   0.000D+00 0.000D+00 0.000D+00 0.000D+00 0.100D+01
 Coeff:     -0.377D-02 0.972D-02 0.175D+00 0.270D+00 0.549D+00
 Gap=     0.120 Goal=   None    Shift=    0.000
 RMSDP=3.18D-05 MaxDP=1.34D-03 DE=-4.65D-04 OVMax= 2.73D-03

 Cycle   6  Pass 0  IDiag  1:
 RMSU=  2.42D-05    CP:  9.64D-01  9.56D-01  9.41D-01  6.03D-01  6.33D-01
 E= -466.853359016824     Delta-E=       -0.000019698887 Rises=F Damp=F
 DIIS: error= 1.90D-04 at cycle   6 NSaved=   6.
 NSaved= 6 IEnMin= 6 EnMin= -466.853359016824     IErMin= 6 ErrMin= 1.90D-04
 ErrMax= 1.90D-04  0.00D+00 EMaxC= 1.00D-01 BMatC= 6.15D-06 BMatP= 2.67D-05
 IDIUse=3 WtCom= 9.98D-01 WtEn= 1.90D-03
 Coeff-Com: -0.970D-03 0.122D-02 0.553D-01 0.103D+00 0.361D+00 0.481D+00
 Coeff-En:   0.000D+00 0.000D+00 0.000D+00 0.000D+00 0.231D+00 0.769D+00
 Coeff:     -0.968D-03 0.121D-02 0.552D-01 0.102D+00 0.361D+00 0.481D+00
 Gap=     0.120 Goal=   None    Shift=    0.000
 RMSDP=1.45D-05 MaxDP=4.84D-04 DE=-1.97D-05 OVMax= 1.22D-03

 Cycle   7  Pass 0  IDiag  1:
 RMSU=  5.21D-06    CP:  9.64D-01  9.55D-01  9.44D-01  6.07D-01  7.06D-01
                    CP:  4.91D-01
 E= -466.853366127559     Delta-E=       -0.000007110735 Rises=F Damp=F
 DIIS: error= 4.16D-05 at cycle   7 NSaved=   7.
 NSaved= 7 IEnMin= 7 EnMin= -466.853366127559     IErMin= 7 ErrMin= 4.16D-05
 ErrMax= 4.16D-05  0.00D+00 EMaxC= 1.00D-01 BMatC= 1.02D-07 BMatP= 6.15D-06
 IDIUse=1 WtCom= 1.00D+00 WtEn= 0.00D+00
 Coeff-Com: -0.240D-03 0.519D-04 0.162D-01 0.318D-01 0.125D+00 0.200D+00
 Coeff-Com:  0.627D+00
 Coeff:     -0.240D-03 0.519D-04 0.162D-01 0.318D-01 0.125D+00 0.200D+00
 Coeff:      0.627D+00
 Gap=     0.120 Goal=   None    Shift=    0.000
 RMSDP=3.12D-06 MaxDP=7.66D-05 DE=-7.11D-06 OVMax= 3.33D-04

 Initial convergence to 1.0D-05 achieved.  Increase integral accuracy.
 Cycle   8  Pass 1  IDiag  1:
 E= -466.853465533690     Delta-E=       -0.000099406131 Rises=F Damp=F
 DIIS: error= 2.43D-05 at cycle   1 NSaved=   1.
 NSaved= 1 IEnMin= 1 EnMin= -466.853465533690     IErMin= 1 ErrMin= 2.43D-05
 ErrMax= 2.43D-05  0.00D+00 EMaxC= 1.00D-01 BMatC= 1.39D-07 BMatP= 1.39D-07
 IDIUse=1 WtCom= 1.00D+00 WtEn= 0.00D+00
 Coeff-Com:  0.100D+01
 Coeff:      0.100D+01
 Gap=     0.120 Goal=   None    Shift=    0.000
 RMSDP=3.12D-06 MaxDP=7.66D-05 DE=-9.94D-05 OVMax= 3.93D-04

 Cycle   9  Pass 1  IDiag  1:
 RMSU=  1.01D-05    CP:  1.00D+00
 E= -466.853465323347     Delta-E=        0.000000210343 Rises=F Damp=F
 DIIS: error= 5.36D-05 at cycle   2 NSaved=   2.
 NSaved= 2 IEnMin= 1 EnMin= -466.853465533690     IErMin= 1 ErrMin= 2.43D-05
 ErrMax= 5.36D-05  0.00D+00 EMaxC= 1.00D-01 BMatC= 2.84D-07 BMatP= 1.39D-07
 IDIUse=1 WtCom= 1.00D+00 WtEn= 0.00D+00
 Coeff-Com:  0.606D+00 0.394D+00
 Coeff:      0.606D+00 0.394D+00
 Gap=     0.120 Goal=   None    Shift=    0.000
 RMSDP=3.60D-06 MaxDP=1.03D-04 DE= 2.10D-07 OVMax= 3.27D-04

 Cycle  10  Pass 1  IDiag  1:
 RMSU=  3.30D-06    CP:  1.00D+00  8.56D-01
 E= -466.853465643753     Delta-E=       -0.000000320406 Rises=F Damp=F
 DIIS: error= 1.47D-05 at cycle   3 NSaved=   3.
 NSaved= 3 IEnMin= 3 EnMin= -466.853465643753     IErMin= 3 ErrMin= 1.47D-05
 ErrMax= 1.47D-05  0.00D+00 EMaxC= 1.00D-01 BMatC= 1.97D-08 BMatP= 1.39D-07
 IDIUse=1 WtCom= 1.00D+00 WtEn= 0.00D+00
 Coeff-Com:  0.153D-01 0.207D+00 0.777D+00
 Coeff:      0.153D-01 0.207D+00 0.777D+00
 Gap=     0.120 Goal=   None    Shift=    0.000
 RMSDP=8.26D-07 MaxDP=2.28D-05 DE=-3.20D-07 OVMax= 8.24D-05

 Cycle  11  Pass 1  IDiag  1:
 RMSU=  3.31D-07    CP:  1.00D+00  8.95D-01  8.03D-01
 E= -466.853465665877     Delta-E=       -0.000000022124 Rises=F Damp=F
 DIIS: error= 2.51D-06 at cycle   4 NSaved=   4.
 NSaved= 4 IEnMin= 4 EnMin= -466.853465665877     IErMin= 4 ErrMin= 2.51D-06
 ErrMax= 2.51D-06  0.00D+00 EMaxC= 1.00D-01 BMatC= 1.83D-09 BMatP= 1.97D-08
 IDIUse=1 WtCom= 1.00D+00 WtEn= 0.00D+00
 Coeff-Com: -0.485D-02 0.120D+00 0.483D+00 0.402D+00
 Coeff:     -0.485D-02 0.120D+00 0.483D+00 0.402D+00
 Gap=     0.120 Goal=   None    Shift=    0.000
 RMSDP=2.02D-07 MaxDP=7.59D-06 DE=-2.21D-08 OVMax= 1.61D-05

 Cycle  12  Pass 1  IDiag  1:
 RMSU=  7.50D-08    CP:  1.00D+00  8.96D-01  8.11D-01  4.39D-01
 E= -466.853465667746     Delta-E=       -0.000000001869 Rises=F Damp=F
 DIIS: error= 5.37D-07 at cycle   5 NSaved=   5.
 NSaved= 5 IEnMin= 5 EnMin= -466.853465667746     IErMin= 5 ErrMin= 5.37D-07
 ErrMax= 5.37D-07  0.00D+00 EMaxC= 1.00D-01 BMatC= 4.89D-11 BMatP= 1.83D-09
 IDIUse=1 WtCom= 1.00D+00 WtEn= 0.00D+00
 Coeff-Com: -0.338D-02 0.612D-01 0.249D+00 0.230D+00 0.464D+00
 Coeff:     -0.338D-02 0.612D-01 0.249D+00 0.230D+00 0.464D+00
 Gap=     0.120 Goal=   None    Shift=    0.000
 RMSDP=3.72D-08 MaxDP=1.30D-06 DE=-1.87D-09 OVMax= 2.71D-06

 Cycle  13  Pass 1  IDiag  1:
 RMSU=  2.52D-08    CP:  1.00D+00  8.96D-01  8.09D-01  4.76D-01  6.79D-01
 E= -466.853465667812     Delta-E=       -0.000000000065 Rises=F Damp=F
 DIIS: error= 9.85D-08 at cycle   6 NSaved=   6.
 NSaved= 6 IEnMin= 6 EnMin= -466.853465667812     IErMin= 6 ErrMin= 9.85D-08
 ErrMax= 9.85D-08  0.00D+00 EMaxC= 1.00D-01 BMatC= 1.74D-12 BMatP= 4.89D-11
 IDIUse=1 WtCom= 1.00D+00 WtEn= 0.00D+00
 Coeff-Com: -0.538D-03 0.648D-02 0.272D-01 0.301D-01 0.179D+00 0.758D+00
 Coeff:     -0.538D-03 0.648D-02 0.272D-01 0.301D-01 0.179D+00 0.758D+00
 Gap=     0.120 Goal=   None    Shift=    0.000
 RMSDP=7.80D-09 MaxDP=2.80D-07 DE=-6.55D-11 OVMax= 7.42D-07

 SCF Done:  E(RB3LYP) =  -466.853465668     A.U. after   13 cycles
            NFock= 13  Conv=0.78D-08     -V/T= 2.0102
 KE= 4.621400934549D+02 PE=-2.180760759712D+03 EE= 7.010021144128D+02
 Leave Link  502 at Mon Jun  7 10:25:49 2021, MaxMem=    33554432 cpu:        40.4
 (Enter /opt/app/gaussian09/e01/g09/l801.exe)
 DoSCS=F DFT=T ScalE2(SS,OS)=  1.000000  1.000000
 ExpMin= 1.61D-01 ExpMax= 3.05D+03 ExpMxC= 4.57D+02 IAcc=3 IRadAn=         5 AccDes= 0.00D+00
 HarFok:  IExCor=  205 AccDes= 0.00D+00 IRadAn=         5 IDoV=-2 UseB2=F ITyADJ=14
 ICtDFT= 12500011 ScaDFX=  1.000000  1.000000  1.000000  1.000000
 Largest valence mixing into a core orbital is  5.38D-05
 Largest core mixing into a valence orbital is  1.13D-05
 Range of M.O.s used for correlation:    13   212
 NBasis=   212 NAE=    44 NBE=    44 NFC=    12 NFV=     0
 NROrb=    200 NOA=    32 NOB=    32 NVA=   168 NVB=   168
 Leave Link  801 at Mon Jun  7 10:25:51 2021, MaxMem=    33554432 cpu:         1.0
 (Enter /opt/app/gaussian09/e01/g09/l914.exe)
 RHF ground state
 MDV=    33554432 DFT=T DoStab=F Mixed=T DoRPA=T DoScal=F NonHer=T
 Would need an additional           476400000 words for in-memory AO integral storage.
 Making orbital integer symmetry assigments:
 Orbital symmetries:
       Occupied  (AU) (AG) (AG) (AU) (AG) (AU) (AG) (AU) (AU) (AG)
                 (AU) (AG) (AG) (AU) (AG) (AU) (AG) (AU) (AG) (AU)
                 (AU) (AG) (AG) (AU) (AG) (AU) (AU) (AG) (AU) (AG)
                 (AG) (AU) (AG) (AU) (AG) (AU) (AG) (AU) (AU) (AG)
                 (AG) (AU) (AG) (AU)
       Virtual   (AG) (AU) (AG) (AU) (AU) (AG) (AG) (AU) (AG) (AU)
                 (AG) (AU) (AG) (AU) (AG) (AU) (AG) (AG) (AU) (AG)
                 (AU) (AU) (AG) (AU) (AG) (AU) (AG) (AU) (AG) (AG)
                 (AU) (AU) (AU) (AG) (AU) (AG) (AU) (AU) (AG) (AG)
                 (AG) (AG) (AU) (AU) (AG) (AU) (AG) (AG) (AU) (AG)
                 (AU) (AU) (AG) (AU) (AG) (AU) (AU) (AG) (AG) (AU)
                 (AG) (AU) (AU) (AG) (AG) (AU) (AG) (AU) (AG) (AU)
                 (AU) (AG) (AG) (AU) (AU) (AG) (AU) (AG) (AG) (AG)
                 (AU) (AU) (AU) (AG) (AU) (AG) (AG) (AU) (AG) (AU)
                 (AU) (AG) (AU) (AU) (AG) (AG) (AG) (AU) (AU) (AG)
                 (AU) (AG) (AU) (AG) (AU) (AG) (AU) (AG) (AU) (AU)
                 (AG) (AG) (AU) (AG) (AU) (AG) (AU) (AG) (AG) (AU)
                 (AG) (AU) (AU) (AG) (AU) (AU) (AG) (AG) (AG) (AU)
                 (AU) (AG) (AG) (AG) (AU) (AU) (AU) (AG) (AU) (AG)
                 (AG) (AU) (AU) (AG) (AG) (AU) (AG) (AU) (AU) (AG)
                 (AG) (AU) (AG) (AU) (AU) (AG) (AG) (AU) (AG) (AU)
                 (AG) (AU) (AG) (AU) (AG) (AU) (AG) (AU)
    12 initial guesses have been made.
 Convergence on wavefunction:    0.001000000000000
 Davidson Disk Diagonalization:  ConvIn= 1.00D-03 SkipCon=T Conv= 1.00D-03.
 Max sub-space:   200 roots to seek:    12 dimension of matrix:        10752
 Iteration     1 Dimension    12 NMult     0 NNew     12
 CISAX will form    12 AO SS matrices at one time.
 NMat=    12 NSing=    12 JSym2X=-1.
 FoFJK:  IHMeth= 1 ICntrl=       0 DoSepK=F KAlg= 0 I1Cent=   0 FoldK=F
 IRaf=         0 NMat=  24 IRICut=      30 DoRegI=T DoRafI=T ISym2E=-1.
 FoFCou: FMM=F IPFlag=           0 FMFlag=      100000 FMFlg1=           0
         NFxFlg=           0 DoJE=F BraDBF=F KetDBF=F FulRan=T
         wScrn=  0.000000 ICntrl=       0 IOpCl=  0 I1Cent=           0 NGrid=           0
         NMat0=   24 NMatS0=     12 NMatT0=    0 NMatD0=   24 NMtDS0=    0 NMtDT0=    0
 Petite list used in FoFCou.
 New state      3 was old state      4
 Excitation Energies [eV] at current iteration:
 Root      1 :     3.993447617606615
 Root      2 :     4.232926572452127
 Root      3 :     5.545677645536792
 Root      4 :     6.289297179240840
 Root      5 :     6.372929746469725
 Root      6 :     6.531880248904012
 Root      7 :     6.538785138671304
 Root      8 :     6.766459691238144
 Root      9 :     7.419947983859963
 Root     10 :     7.858304935845609
 Root     11 :     8.261952830692925
 Root     12 :     8.905122715705119
 Iteration     2 Dimension    18 NMult    12 NNew      6
 CISAX will form     6 AO SS matrices at one time.
 NMat=     6 NSing=     6 JSym2X=-1.
 Root      1 not converged, maximum delta is    0.069700617887187
 Root      2 not converged, maximum delta is    0.044117322030623
 Root      3 not converged, maximum delta is    0.062187303149020
 Excitation Energies [eV] at current iteration:
 Root      1 :     3.528007615523891   Change is   -0.465440002082724
 Root      2 :     4.198947079197994   Change is   -0.033979493254132
 Root      3 :     5.479382493733727   Change is   -0.066295151803065
 Iteration     3 Dimension    24 NMult    18 NNew      6
 CISAX will form     6 AO SS matrices at one time.
 NMat=     6 NSing=     6 JSym2X=-1.
 Root      1 not converged, maximum delta is    0.007711217603903
 Root      2 not converged, maximum delta is    0.003952805926758
 Root      3 not converged, maximum delta is    0.008483845373235
 Excitation Energies [eV] at current iteration:
 Root      1 :     3.509701782476364   Change is   -0.018305833047527
 Root      2 :     4.196874017147868   Change is   -0.002073062050126
 Root      3 :     5.476132562461153   Change is   -0.003249931272574
 Iteration     4 Dimension    30 NMult    24 NNew      6
 CISAX will form     6 AO SS matrices at one time.
 NMat=     6 NSing=     6 JSym2X=-1.
 Root      1 not converged, maximum delta is    0.002041501779981
 Root      2 not converged, maximum delta is    0.001022216613132
 Root      3 not converged, maximum delta is    0.004745122950439
 Excitation Energies [eV] at current iteration:
 Root      1 :     3.509197703983926   Change is   -0.000504078492438
 Root      2 :     4.196736853826605   Change is   -0.000137163321264
 Root      3 :     5.475406545302336   Change is   -0.000726017158817
 Iteration     5 Dimension    36 NMult    30 NNew      6
 CISAX will form     6 AO SS matrices at one time.
 NMat=     6 NSing=     6 JSym2X=-1.
 Root      1 has converged.
 Root      2 has converged.
 Root      3 has converged.
 Excitation Energies [eV] at current iteration:
 Root      1 :     3.509172474987669   Change is   -0.000025228996256
 Root      2 :     4.196723753098444   Change is   -0.000013100728160
 Root      3 :     5.475343243779938   Change is   -0.000063301522398
 Convergence achieved on expansion vectors.
 ***********************************************************************
 Excited states from <AA,BB:AA,BB> singles matrix:
 ***********************************************************************
 
 1PDM for each excited state written to RWF  633
 Ground to excited state transition densities written to RWF  633
 Ground to excited state transition electric dipole moments (Au):
       state          X           Y           Z        Dip. S.      Osc.
         1        -4.9521      0.3989      0.0000     24.6827      2.1220
         2        -0.0000      0.0000      0.0000      0.0000      0.0000
         3        -0.1079      0.0935     -0.0000      0.0204      0.0027
 Ground to excited state transition velocity dipole moments (Au):
       state          X           Y           Z        Dip. S.      Osc.
         1         0.6152     -0.0538     -0.0000      0.3814      1.9718
         2         0.0000     -0.0000      0.0000      0.0000      0.0000
         3         0.0221     -0.0179      0.0000      0.0008      0.0027
 Ground to excited state transition magnetic dipole moments (Au):
       state          X           Y           Z
         1        -0.0000     -0.0000     -0.0000
         2         0.0000      0.0000      0.1218
         3         0.0000     -0.0000      0.0000
 Ground to excited state transition velocity quadrupole moments (Au):
       state          XX          YY          ZZ          XY          XZ          YZ
         1         0.0000      0.0000      0.0000     -0.0000     -0.0000     -0.0000
         2         0.7641      0.0009     -0.0070     -0.0241     -0.0000     -0.0000
         3         0.0000      0.0000      0.0000      0.0000      0.0000      0.0000
 <0|del|b> * <b|rxdel|0> + <0|del|b> * <b|delr+rdel|0>
 Rotatory Strengths (R) in cgs (10**-40 erg-esu-cm/Gauss)
       state          XX          YY          ZZ    R(velocity)    E-M Angle
         1        -0.0000     -0.0000     -0.0000     -0.0000       90.00
         2         0.0000      0.0000      0.0000      0.0000       90.00
         3         0.0000      0.0000      0.0000      0.0000       90.00
 1/2[<0|r|b>*<b|rxdel|0> + (<0|rxdel|b>*<b|r|0>)*]
 Rotatory Strengths (R) in cgs (10**-40 erg-esu-cm/Gauss)
       state          XX          YY          ZZ     R(length)
         1        -0.0000      0.0000      0.0000     -0.0000
         2         0.0000     -0.0000     -0.0000     -0.0000
         3         0.0000      0.0000      0.0000      0.0000
  1/2[<0|del|b>*<b|r|0> + (<0|r|b>*<b|del|0>)*] (Au)
       state          X           Y           Z        Dip. S.   Osc.(frdel)
         1        -3.0468     -0.0215     -0.0000      3.0682      2.0455
         2        -0.0000     -0.0000      0.0000      0.0000      0.0000
         3        -0.0024     -0.0017     -0.0000      0.0041      0.0027

 Excitation energies and oscillator strengths:
 
 Excited State   1:      Singlet-AU     3.5092 eV  353.31 nm  f=2.1220  <S**2>=0.000
      44 -> 45         0.71500
      44 <- 45        -0.12572
 This state for optimization and/or second-order correction.
 Total Energy, E(TD-HF/TD-KS) =  -466.724505947    
 Copying the excited state density for this state as the 1-particle RhoCI density.
 
 Excited State   2:      Singlet-AG     4.1967 eV  295.43 nm  f=0.0000  <S**2>=0.000
      43 -> 45         0.54833
      44 -> 46         0.44206
 
 Excited State   3:      Singlet-AU     5.4753 eV  226.44 nm  f=0.0027  <S**2>=0.000
      42 -> 45         0.60295
      44 -> 47        -0.35432
 SavETr:  write IOETrn=   770 NScale= 10 NData=  16 NLR=1 NState=    3 LETran=      64.
 Leave Link  914 at Mon Jun  7 10:27:34 2021, MaxMem=    33554432 cpu:       101.6
 (Enter /opt/app/gaussian09/e01/g09/l601.exe)
 Copying SCF densities to generalized density rwf, IOpCl= 0 IROHF=0.

 **********************************************************************

            Population analysis using the SCF density.

 **********************************************************************

 Orbital symmetries:
       Occupied  (AU) (AG) (AG) (AU) (AG) (AU) (AG) (AU) (AU) (AG)
                 (AU) (AG) (AG) (AU) (AG) (AU) (AG) (AU) (AG) (AU)
                 (AU) (AG) (AG) (AU) (AG) (AU) (AU) (AG) (AU) (AG)
                 (AG) (AU) (AG) (AU) (AG) (AU) (AG) (AU) (AU) (AG)
                 (AG) (AU) (AG) (AU)
       Virtual   (AG) (AU) (AG) (AU) (AU) (AG) (AG) (AU) (AG) (AU)
                 (AG) (AU) (AG) (AU) (AG) (AU) (AG) (AG) (AU) (AG)
                 (AU) (AU) (AG) (AU) (AG) (AU) (AG) (AU) (AG) (AG)
                 (AU) (AU) (AU) (AG) (AU) (AG) (AU) (AU) (AG) (AG)
                 (AG) (AG) (AU) (AU) (AG) (AU) (AG) (AG) (AU) (AG)
                 (AU) (AU) (AG) (AU) (AG) (AU) (AU) (AG) (AG) (AU)
                 (AG) (AU) (AU) (AG) (AG) (AU) (AG) (AU) (AG) (AU)
                 (AU) (AG) (AG) (AU) (AU) (AG) (AU) (AG) (AG) (AG)
                 (AU) (AU) (AU) (AG) (AU) (AG) (AG) (AU) (AG) (AU)
                 (AU) (AG) (AU) (AU) (AG) (AG) (AG) (AU) (AU) (AG)
                 (AU) (AG) (AU) (AG) (AU) (AG) (AU) (AG) (AU) (AU)
                 (AG) (AG) (AU) (AG) (AU) (AG) (AU) (AG) (AG) (AU)
                 (AG) (AU) (AU) (AG) (AU) (AU) (AG) (AG) (AG) (AU)
                 (AU) (AG) (AG) (AG) (AU) (AU) (AU) (AG) (AU) (AG)
                 (AG) (AU) (AU) (AG) (AG) (AU) (AG) (AU) (AU) (AG)
                 (AG) (AU) (AG) (AU) (AU) (AG) (AG) (AU) (AG) (AU)
                 (AG) (AU) (AG) (AU) (AG) (AU) (AG) (AU)
 The electronic state is 1-AG.
 Alpha  occ. eigenvalues --  -10.18906 -10.18906 -10.18720 -10.18713 -10.18708
 Alpha  occ. eigenvalues --  -10.18647 -10.18591 -10.18587 -10.18399 -10.18399
 Alpha  occ. eigenvalues --  -10.18331 -10.18331  -0.82153  -0.80910  -0.79007
 Alpha  occ. eigenvalues --   -0.76447  -0.73226  -0.69357  -0.66319  -0.60519
 Alpha  occ. eigenvalues --   -0.55953  -0.55851  -0.54820  -0.54019  -0.47826
 Alpha  occ. eigenvalues --   -0.46751  -0.45184  -0.43397  -0.41093  -0.41091
 Alpha  occ. eigenvalues --   -0.40963  -0.40644  -0.38054  -0.37472  -0.36211
 Alpha  occ. eigenvalues --   -0.36190  -0.35159  -0.34459  -0.34159  -0.33927
 Alpha  occ. eigenvalues --   -0.31708  -0.27990  -0.23220  -0.17802
 Alpha virt. eigenvalues --   -0.05821   0.00577   0.06252   0.09272   0.10039
 Alpha virt. eigenvalues --    0.10915   0.11519   0.11775   0.11814   0.13467
 Alpha virt. eigenvalues --    0.15137   0.15213   0.16126   0.16241   0.16395
 Alpha virt. eigenvalues --    0.17298   0.17316   0.17619   0.18227   0.20340
 Alpha virt. eigenvalues --    0.20580   0.24565   0.26224   0.30106   0.33427
 Alpha virt. eigenvalues --    0.35118   0.37132   0.38109   0.39963   0.41864
 Alpha virt. eigenvalues --    0.42126   0.44111   0.47388   0.49314   0.52238
 Alpha virt. eigenvalues --    0.52950   0.54508   0.56402   0.56456   0.56477
 Alpha virt. eigenvalues --    0.59225   0.59291   0.59297   0.59408   0.59717
 Alpha virt. eigenvalues --    0.60816   0.62408   0.62878   0.63742   0.64727
 Alpha virt. eigenvalues --    0.65196   0.66325   0.69491   0.70568   0.73068
 Alpha virt. eigenvalues --    0.73077   0.74914   0.75622   0.77564   0.77626
 Alpha virt. eigenvalues --    0.82321   0.84186   0.86286   0.86851   0.87071
 Alpha virt. eigenvalues --    0.87597   0.87628   0.88137   0.89438   0.89624
 Alpha virt. eigenvalues --    0.90146   0.90280   0.91673   0.91895   0.94340
 Alpha virt. eigenvalues --    0.94821   0.95989   0.95991   1.00345   1.04358
 Alpha virt. eigenvalues --    1.04486   1.05955   1.07772   1.11063   1.14709
 Alpha virt. eigenvalues --    1.16039   1.19953   1.22575   1.29425   1.31616
 Alpha virt. eigenvalues --    1.32826   1.32938   1.33753   1.34137   1.34254
 Alpha virt. eigenvalues --    1.36044   1.38678   1.40197   1.42624   1.43697
 Alpha virt. eigenvalues --    1.50349   1.51061   1.53489   1.56728   1.63197
 Alpha virt. eigenvalues --    1.69194   1.73691   1.77085   1.77379   1.83288
 Alpha virt. eigenvalues --    1.83332   1.85831   1.87846   1.88640   1.91619
 Alpha virt. eigenvalues --    1.91806   1.92071   1.93089   1.98204   1.99260
 Alpha virt. eigenvalues --    2.00211   2.01392   2.06536   2.11023   2.14221
 Alpha virt. eigenvalues --    2.15857   2.16007   2.17497   2.23017   2.25224
 Alpha virt. eigenvalues --    2.25253   2.29654   2.31900   2.32865   2.33247
 Alpha virt. eigenvalues --    2.35545   2.37918   2.38998   2.43031   2.44126
 Alpha virt. eigenvalues --    2.48320   2.48554   2.51445   2.51751   2.56828
 Alpha virt. eigenvalues --    2.63335   2.79781   2.81703   2.91182   2.91345
 Alpha virt. eigenvalues --    2.92075   2.93800   3.02496   3.02991   3.11708
 Alpha virt. eigenvalues --    3.11957   4.09573   4.10038   4.11170   4.13069
 Alpha virt. eigenvalues --    4.15845   4.18668   4.26621   4.31140   4.36145
 Alpha virt. eigenvalues --    4.42670   4.49865   4.55674
     Molecular Orbital Coefficients:
                           1         2         3         4         5
                           O         O         O         O         O
     Eigenvalues --   -10.18906 -10.18906 -10.18720 -10.18713 -10.18708
   1 1   C  1S         -0.00468   0.00464   0.39238   0.65672   0.53771
   2        2S         -0.00017   0.00016   0.01942   0.03264   0.02679
   3        2PX         0.00001  -0.00002   0.00012   0.00011   0.00005
   4        2PY        -0.00001   0.00001   0.00005   0.00007   0.00005
   5        2PZ         0.00000  -0.00000  -0.00000  -0.00000  -0.00000
   6        3S         -0.00003   0.00022  -0.00530  -0.00943  -0.00802
   7        3PX        -0.00022   0.00017  -0.00084  -0.00038   0.00015
   8        3PY         0.00016  -0.00009  -0.00099  -0.00152  -0.00103
   9        3PZ         0.00000  -0.00000   0.00000   0.00000   0.00000
  10        4XX         0.00002  -0.00001  -0.00364  -0.00609  -0.00500
  11        4YY         0.00005  -0.00005  -0.00373  -0.00624  -0.00510
  12        4ZZ         0.00006  -0.00007  -0.00383  -0.00636  -0.00519
  13        4XY        -0.00001   0.00000  -0.00003  -0.00003  -0.00003
  14        4XZ         0.00000  -0.00000  -0.00000  -0.00000  -0.00000
  15        4YZ         0.00000  -0.00000   0.00000   0.00000   0.00000
  16 2   H  1S          0.00002  -0.00002  -0.00020  -0.00026  -0.00018
  17        2S          0.00013  -0.00012   0.00051   0.00094   0.00092
  18 3   C  1S         -0.00051   0.00048   0.21925   0.23585   0.10747
  19        2S         -0.00001   0.00000   0.01048   0.01142   0.00522
  20        2PX         0.00003  -0.00002   0.00002  -0.00023  -0.00033
  21        2PY         0.00000  -0.00001   0.00013   0.00011   0.00003
  22        2PZ        -0.00000   0.00000   0.00000  -0.00000  -0.00000
  23        3S          0.00005  -0.00010   0.00189   0.00008  -0.00046
  24        3PX        -0.00068   0.00048  -0.00049   0.00196   0.00231
  25        3PY        -0.00011   0.00017  -0.00003   0.00017  -0.00015
  26        3PZ         0.00000  -0.00000  -0.00000  -0.00000   0.00000
  27        4XX        -0.00000   0.00000  -0.00230  -0.00238  -0.00098
  28        4YY         0.00001  -0.00001  -0.00234  -0.00244  -0.00105
  29        4ZZ         0.00001  -0.00001  -0.00226  -0.00236  -0.00105
  30        4XY         0.00001  -0.00000  -0.00006   0.00001   0.00010
  31        4XZ         0.00000  -0.00000  -0.00000  -0.00000   0.00000
  32        4YZ         0.00000  -0.00000  -0.00000  -0.00000   0.00000
  33 4   H  1S          0.00003  -0.00004  -0.00020  -0.00015  -0.00005
  34        2S         -0.00002   0.00002  -0.00003   0.00007   0.00027
  35 5   C  1S          0.00002  -0.00000   0.53846   0.06452  -0.43694
  36        2S          0.00004  -0.00003   0.02647   0.00316  -0.02166
  37        2PX         0.00001   0.00001   0.00017  -0.00012  -0.00020
  38        2PY         0.00000  -0.00000  -0.00003  -0.00001   0.00002
  39        2PZ         0.00000  -0.00000   0.00000   0.00000   0.00000
  40        3S         -0.00056   0.00039  -0.00481  -0.00020   0.00506
  41        3PX        -0.00023   0.00025  -0.00124   0.00123   0.00102
  42        3PY        -0.00020   0.00022  -0.00107  -0.00006   0.00056
  43        3PZ        -0.00000   0.00000  -0.00000   0.00000  -0.00000
  44        4XX        -0.00002   0.00000  -0.00514  -0.00064   0.00413
  45        4YY         0.00000   0.00000  -0.00527  -0.00065   0.00421
  46        4ZZ         0.00001  -0.00002  -0.00530  -0.00065   0.00424
  47        4XY        -0.00001   0.00001  -0.00003  -0.00003  -0.00002
  48        4XZ        -0.00000   0.00000  -0.00000  -0.00000  -0.00000
  49        4YZ        -0.00000   0.00000   0.00000   0.00000  -0.00000
  50 6   H  1S          0.00000  -0.00000  -0.00030  -0.00001   0.00016
  51        2S         -0.00005   0.00009   0.00052  -0.00005  -0.00070
  52 7   C  1S         -0.00002  -0.00000   0.53846  -0.06452  -0.43694
  53        2S         -0.00004  -0.00003   0.02647  -0.00316  -0.02166
  54        2PX         0.00001  -0.00001  -0.00017  -0.00012   0.00020
  55        2PY         0.00000   0.00000   0.00003  -0.00001  -0.00002
  56        2PZ         0.00000   0.00000  -0.00000   0.00000  -0.00000
  57        3S          0.00056   0.00039  -0.00481   0.00020   0.00506
  58        3PX        -0.00023  -0.00025   0.00124   0.00123  -0.00102
  59        3PY        -0.00020  -0.00022   0.00107  -0.00006  -0.00056
  60        3PZ        -0.00000  -0.00000   0.00000   0.00000   0.00000
  61        4XX         0.00002   0.00000  -0.00514   0.00064   0.00413
  62        4YY        -0.00000   0.00000  -0.00527   0.00065   0.00421
  63        4ZZ        -0.00001  -0.00002  -0.00530   0.00065   0.00424
  64        4XY         0.00001   0.00001  -0.00003   0.00003  -0.00002
  65        4XZ         0.00000   0.00000  -0.00000   0.00000  -0.00000
  66        4YZ         0.00000   0.00000   0.00000  -0.00000  -0.00000
  67 8   H  1S         -0.00000  -0.00000  -0.00030   0.00001   0.00016
  68        2S          0.00005   0.00009   0.00052   0.00005  -0.00070
  69 9   C  1S          0.00051   0.00048   0.21925  -0.23585   0.10747
  70        2S          0.00001   0.00000   0.01048  -0.01142   0.00522
  71        2PX         0.00003   0.00002  -0.00002  -0.00023   0.00033
  72        2PY         0.00000   0.00001  -0.00013   0.00011  -0.00003
  73        2PZ        -0.00000  -0.00000  -0.00000  -0.00000   0.00000
  74        3S         -0.00005  -0.00010   0.00189  -0.00008  -0.00046
  75        3PX        -0.00068  -0.00048   0.00049   0.00196  -0.00231
  76        3PY        -0.00011  -0.00017   0.00003   0.00017   0.00015
  77        3PZ         0.00000   0.00000   0.00000  -0.00000  -0.00000
  78        4XX         0.00000   0.00000  -0.00230   0.00238  -0.00098
  79        4YY        -0.00001  -0.00001  -0.00234   0.00244  -0.00105
  80        4ZZ        -0.00001  -0.00001  -0.00226   0.00236  -0.00105
  81        4XY        -0.00001  -0.00000  -0.00006  -0.00001   0.00010
  82        4XZ        -0.00000  -0.00000  -0.00000   0.00000   0.00000
  83        4YZ        -0.00000  -0.00000  -0.00000   0.00000   0.00000
  84 10  H  1S         -0.00003  -0.00004  -0.00020   0.00015  -0.00005
  85        2S          0.00002   0.00002  -0.00003  -0.00007   0.00027
  86 11  C  1S          0.00468   0.00464   0.39238  -0.65672   0.53771
  87        2S          0.00017   0.00016   0.01942  -0.03264   0.02679
  88        2PX         0.00001   0.00002  -0.00012   0.00011  -0.00005
  89        2PY        -0.00001  -0.00001  -0.00005   0.00007  -0.00005
  90        2PZ         0.00000   0.00000   0.00000  -0.00000   0.00000
  91        3S          0.00003   0.00022  -0.00530   0.00943  -0.00802
  92        3PX        -0.00022  -0.00017   0.00084  -0.00038  -0.00015
  93        3PY         0.00016   0.00009   0.00099  -0.00152   0.00103
  94        3PZ         0.00000   0.00000  -0.00000   0.00000  -0.00000
  95        4XX        -0.00002  -0.00001  -0.00364   0.00609  -0.00500
  96        4YY        -0.00005  -0.00005  -0.00373   0.00624  -0.00510
  97        4ZZ        -0.00006  -0.00007  -0.00383   0.00636  -0.00519
  98        4XY         0.00001   0.00000  -0.00003   0.00003  -0.00003
  99        4XZ        -0.00000  -0.00000  -0.00000   0.00000  -0.00000
 100        4YZ        -0.00000  -0.00000   0.00000  -0.00000   0.00000
 101 12  H  1S         -0.00002  -0.00002  -0.00020   0.00026  -0.00018
 102        2S         -0.00013  -0.00012   0.00051  -0.00094   0.00092
 103 13  C  1S          0.05490   0.05490   0.02271  -0.03896   0.03250
 104        2S          0.00232   0.00232   0.00096  -0.00171   0.00145
 105        2PX         0.00026   0.00026  -0.00013   0.00019  -0.00015
 106        2PY        -0.00014  -0.00014  -0.00005   0.00010  -0.00008
 107        2PZ         0.00000   0.00000   0.00000  -0.00000   0.00000
 108        3S          0.00349   0.00342   0.00174  -0.00265   0.00198
 109        3PX        -0.00203  -0.00203   0.00155  -0.00160   0.00098
 110        3PY         0.00046   0.00045   0.00008  -0.00016   0.00011
 111        3PZ        -0.00000  -0.00000  -0.00000   0.00000  -0.00000
 112        4XX        -0.00069  -0.00069  -0.00036   0.00062  -0.00053
 113        4YY        -0.00072  -0.00072  -0.00034   0.00057  -0.00047
 114        4ZZ        -0.00064  -0.00064  -0.00029   0.00047  -0.00039
 115        4XY         0.00002   0.00003  -0.00005   0.00012  -0.00010
 116        4XZ        -0.00000  -0.00000   0.00000  -0.00000   0.00000
 117        4YZ         0.00000   0.00000   0.00000  -0.00000   0.00000
 118 14  H  1S         -0.00010  -0.00010  -0.00009   0.00010  -0.00006
 119        2S         -0.00013  -0.00012  -0.00008   0.00021  -0.00021
 120 15  C  1S          0.69964   0.69964  -0.00456   0.00765  -0.00621
 121        2S          0.03477   0.03476  -0.00029   0.00045  -0.00036
 122        2PX        -0.00009  -0.00009  -0.00001   0.00003  -0.00002
 123        2PY        -0.00008  -0.00008  -0.00000   0.00001  -0.00001
 124        2PZ         0.00000   0.00000   0.00000  -0.00000   0.00000
 125        3S         -0.01089  -0.01086   0.00056  -0.00032   0.00012
 126        3PX        -0.00030  -0.00026   0.00033  -0.00024   0.00011
 127        3PY         0.00155   0.00155  -0.00023   0.00004   0.00007
 128        3PZ        -0.00000  -0.00000   0.00000   0.00000  -0.00000
 129        4XX        -0.00643  -0.00643   0.00006  -0.00010   0.00008
 130        4YY        -0.00655  -0.00655   0.00006  -0.00009   0.00007
 131        4ZZ        -0.00671  -0.00672   0.00002  -0.00005   0.00005
 132        4XY        -0.00008  -0.00008  -0.00001   0.00001  -0.00001
 133        4XZ         0.00000   0.00000   0.00000  -0.00000   0.00000
 134        4YZ        -0.00000  -0.00000  -0.00000   0.00000  -0.00000
 135 16  H  1S         -0.00026  -0.00026  -0.00001   0.00001  -0.00001
 136        2S          0.00115   0.00116   0.00006   0.00004  -0.00009
 137 17  C  1S         -0.05490   0.05490   0.02271   0.03896   0.03250
 138        2S         -0.00232   0.00232   0.00096   0.00171   0.00145
 139        2PX         0.00026  -0.00026   0.00013   0.00019   0.00015
 140        2PY        -0.00014   0.00014   0.00005   0.00010   0.00008
 141        2PZ         0.00000  -0.00000  -0.00000  -0.00000  -0.00000
 142        3S         -0.00349   0.00342   0.00174   0.00265   0.00198
 143        3PX        -0.00203   0.00203  -0.00155  -0.00160  -0.00098
 144        3PY         0.00046  -0.00045  -0.00008  -0.00016  -0.00011
 145        3PZ        -0.00000   0.00000   0.00000   0.00000   0.00000
 146        4XX         0.00069  -0.00069  -0.00036  -0.00062  -0.00053
 147        4YY         0.00072  -0.00072  -0.00034  -0.00057  -0.00047
 148        4ZZ         0.00064  -0.00064  -0.00029  -0.00047  -0.00039
 149        4XY        -0.00002   0.00003  -0.00005  -0.00012  -0.00010
 150        4XZ         0.00000  -0.00000   0.00000   0.00000   0.00000
 151        4YZ        -0.00000   0.00000   0.00000   0.00000   0.00000
 152 18  H  1S          0.00010  -0.00010  -0.00009  -0.00010  -0.00006
 153        2S          0.00013  -0.00012  -0.00008  -0.00021  -0.00021
 154 19  C  1S         -0.69964   0.69964  -0.00456  -0.00765  -0.00621
 155        2S         -0.03477   0.03476  -0.00029  -0.00045  -0.00036
 156        2PX        -0.00009   0.00009   0.00001   0.00003   0.00002
 157        2PY        -0.00008   0.00008   0.00000   0.00001   0.00001
 158        2PZ         0.00000  -0.00000  -0.00000  -0.00000  -0.00000
 159        3S          0.01089  -0.01086   0.00056   0.00032   0.00012
 160        3PX        -0.00030   0.00026  -0.00033  -0.00024  -0.00011
 161        3PY         0.00155  -0.00155   0.00023   0.00004  -0.00007
 162        3PZ        -0.00000   0.00000  -0.00000   0.00000   0.00000
 163        4XX         0.00643  -0.00643   0.00006   0.00010   0.00008
 164        4YY         0.00655  -0.00655   0.00006   0.00009   0.00007
 165        4ZZ         0.00671  -0.00672   0.00002   0.00005   0.00005
 166        4XY         0.00008  -0.00008  -0.00001  -0.00001  -0.00001
 167        4XZ        -0.00000   0.00000   0.00000   0.00000   0.00000
 168        4YZ         0.00000  -0.00000  -0.00000  -0.00000  -0.00000
 169 20  H  1S          0.00026  -0.00026  -0.00001  -0.00001  -0.00001
 170        2S         -0.00115   0.00116   0.00006  -0.00004  -0.00009
 171 21  C  1S         -0.01599   0.01599  -0.00023  -0.00031  -0.00023
 172        2S         -0.00067   0.00067  -0.00005  -0.00006  -0.00004
 173        2PX        -0.00019   0.00019   0.00001   0.00000  -0.00000
 174        2PY        -0.00005   0.00005   0.00000   0.00000   0.00000
 175        2PZ         0.00000  -0.00000   0.00000   0.00000   0.00000
 176        3S         -0.00235   0.00237   0.00015   0.00020   0.00014
 177        3PX         0.00149  -0.00150  -0.00009  -0.00014  -0.00011
 178        3PY        -0.00002   0.00001  -0.00008  -0.00005  -0.00002
 179        3PZ        -0.00000   0.00000  -0.00000  -0.00000  -0.00000
 180        4XX         0.00040  -0.00040   0.00000   0.00001   0.00001
 181        4YY         0.00031  -0.00031  -0.00001  -0.00001  -0.00001
 182        4ZZ         0.00019  -0.00019  -0.00002  -0.00002  -0.00001
 183        4XY         0.00016  -0.00016  -0.00000  -0.00000  -0.00001
 184        4XZ         0.00000  -0.00000  -0.00000  -0.00000  -0.00000
 185        4YZ        -0.00000   0.00000   0.00000   0.00000   0.00000
 186 22  H  1S          0.00011  -0.00011  -0.00000  -0.00000  -0.00000
 187        2S         -0.00037   0.00037  -0.00001   0.00000   0.00001
 188 23  H  1S          0.00010  -0.00010  -0.00002  -0.00003  -0.00002
 189        2S          0.00030  -0.00030   0.00008   0.00007   0.00005
 190 24  H  1S          0.00011  -0.00011  -0.00000  -0.00000  -0.00000
 191        2S         -0.00037   0.00037  -0.00001   0.00000   0.00001
 192 25  C  1S          0.01599   0.01599  -0.00023   0.00031  -0.00023
 193        2S          0.00067   0.00067  -0.00005   0.00006  -0.00004
 194        2PX        -0.00019  -0.00019  -0.00001   0.00000   0.00000
 195        2PY        -0.00005  -0.00005  -0.00000   0.00000  -0.00000
 196        2PZ         0.00000   0.00000  -0.00000   0.00000  -0.00000
 197        3S          0.00235   0.00237   0.00015  -0.00020   0.00014
 198        3PX         0.00149   0.00150   0.00009  -0.00014   0.00011
 199        3PY        -0.00002  -0.00001   0.00008  -0.00005   0.00002
 200        3PZ        -0.00000  -0.00000   0.00000  -0.00000   0.00000
 201        4XX        -0.00040  -0.00040   0.00000  -0.00001   0.00001
 202        4YY        -0.00031  -0.00031  -0.00001   0.00001  -0.00001
 203        4ZZ        -0.00019  -0.00019  -0.00002   0.00002  -0.00001
 204        4XY        -0.00016  -0.00016  -0.00000   0.00000  -0.00001
 205        4XZ        -0.00000  -0.00000  -0.00000   0.00000  -0.00000
 206        4YZ         0.00000   0.00000   0.00000  -0.00000   0.00000
 207 26  H  1S         -0.00011  -0.00011  -0.00000   0.00000  -0.00000
 208        2S          0.00037   0.00037  -0.00001  -0.00000   0.00001
 209 27  H  1S         -0.00011  -0.00011  -0.00000   0.00000  -0.00000
 210        2S          0.00037   0.00037  -0.00001  -0.00000   0.00001
 211 28  H  1S         -0.00010  -0.00010  -0.00002   0.00003  -0.00002
 212        2S         -0.00030  -0.00030   0.00008  -0.00007   0.00005
                           6         7         8         9        10
                           O         O         O         O         O
     Eigenvalues --   -10.18647 -10.18591 -10.18587 -10.18399 -10.18399
   1 1   C  1S         -0.13711  -0.21831  -0.20165   0.04525  -0.04522
   2        2S         -0.00697  -0.01129  -0.01038   0.00250  -0.00252
   3        2PX         0.00004   0.00021   0.00024   0.00022  -0.00021
   4        2PY        -0.00005  -0.00019  -0.00018   0.00014  -0.00014
   5        2PZ        -0.00000  -0.00000  -0.00000  -0.00000   0.00000
   6        3S          0.00329   0.00836   0.00669  -0.00472   0.00484
   7        3PX         0.00003  -0.00202  -0.00188  -0.00173   0.00152
   8        3PY         0.00045   0.00136   0.00075  -0.00060   0.00059
   9        3PZ        -0.00000  -0.00000  -0.00000   0.00000  -0.00000
  10        4XX         0.00123   0.00183   0.00165  -0.00011   0.00012
  11        4YY         0.00126   0.00184   0.00168  -0.00019   0.00019
  12        4ZZ         0.00129   0.00200   0.00186  -0.00033   0.00032
  13        4XY         0.00002   0.00007   0.00008   0.00012  -0.00012
  14        4XZ         0.00000   0.00000   0.00000  -0.00000   0.00000
  15        4YZ         0.00000  -0.00000  -0.00000  -0.00000   0.00000
  16 2   H  1S          0.00006   0.00001  -0.00001   0.00006  -0.00007
  17        2S         -0.00043  -0.00052  -0.00057   0.00031  -0.00032
  18 3   C  1S          0.20327   0.65812   0.62913  -0.00848   0.00843
  19        2S          0.01001   0.03306   0.03162  -0.00041   0.00043
  20        2PX         0.00024   0.00003  -0.00007  -0.00000   0.00002
  21        2PY         0.00008  -0.00020  -0.00020   0.00004  -0.00004
  22        2PZ        -0.00000  -0.00000  -0.00000   0.00000  -0.00000
  23        3S         -0.00030  -0.01362  -0.01307   0.00055  -0.00101
  24        3PX        -0.00203  -0.00081   0.00053   0.00028  -0.00020
  25        3PY        -0.00000   0.00219   0.00174  -0.00022   0.00033
  26        3PZ         0.00000   0.00000   0.00000  -0.00000   0.00000
  27        4XX        -0.00214  -0.00593  -0.00559   0.00002  -0.00004
  28        4YY        -0.00209  -0.00607  -0.00575   0.00003  -0.00003
  29        4ZZ        -0.00203  -0.00628  -0.00599   0.00009  -0.00008
  30        4XY        -0.00014  -0.00004  -0.00003   0.00002  -0.00002
  31        4XZ        -0.00000   0.00000   0.00000   0.00000  -0.00000
  32        4YZ        -0.00000  -0.00000  -0.00000   0.00000  -0.00000
  33 4   H  1S         -0.00012  -0.00023  -0.00014   0.00001  -0.00001
  34        2S          0.00027   0.00122   0.00117   0.00010  -0.00009
  35 5   C  1S          0.65782  -0.10829  -0.23699   0.00084  -0.00058
  36        2S          0.03317  -0.00561  -0.01218   0.00002  -0.00007
  37        2PX        -0.00025  -0.00026  -0.00012   0.00001  -0.00004
  38        2PY         0.00022  -0.00010  -0.00024  -0.00001  -0.00000
  39        2PZ         0.00000  -0.00000  -0.00000   0.00000  -0.00000
  40        3S         -0.01419   0.00480   0.00938   0.00067   0.00047
  41        3PX         0.00223   0.00226   0.00068  -0.00069   0.00049
  42        3PY        -0.00207   0.00054   0.00136   0.00043   0.00010
  43        3PZ        -0.00000  -0.00000   0.00000   0.00000   0.00000
  44        4XX        -0.00594   0.00077   0.00180   0.00001   0.00001
  45        4YY        -0.00603   0.00086   0.00190   0.00000  -0.00000
  46        4ZZ        -0.00626   0.00095   0.00216  -0.00001  -0.00001
  47        4XY        -0.00013  -0.00013  -0.00006  -0.00001   0.00000
  48        4XZ        -0.00000  -0.00000  -0.00000  -0.00000  -0.00000
  49        4YZ         0.00000  -0.00000  -0.00000   0.00000  -0.00000
  50 6   H  1S         -0.00019  -0.00002  -0.00002   0.00004  -0.00003
  51        2S          0.00132  -0.00046  -0.00057   0.00005   0.00008
  52 7   C  1S         -0.65782  -0.10829   0.23699  -0.00084  -0.00058
  53        2S         -0.03317  -0.00561   0.01218  -0.00002  -0.00007
  54        2PX        -0.00025   0.00026  -0.00012   0.00001   0.00004
  55        2PY         0.00022   0.00010  -0.00024  -0.00001   0.00000
  56        2PZ         0.00000   0.00000  -0.00000   0.00000   0.00000
  57        3S          0.01419   0.00480  -0.00938  -0.00067   0.00047
  58        3PX         0.00223  -0.00226   0.00068  -0.00069  -0.00049
  59        3PY        -0.00207  -0.00054   0.00136   0.00043  -0.00010
  60        3PZ        -0.00000   0.00000   0.00000   0.00000  -0.00000
  61        4XX         0.00594   0.00077  -0.00180  -0.00001   0.00001
  62        4YY         0.00603   0.00086  -0.00190  -0.00000  -0.00000
  63        4ZZ         0.00626   0.00095  -0.00216   0.00001  -0.00001
  64        4XY         0.00013  -0.00013   0.00006   0.00001   0.00000
  65        4XZ         0.00000  -0.00000   0.00000   0.00000  -0.00000
  66        4YZ        -0.00000  -0.00000   0.00000  -0.00000  -0.00000
  67 8   H  1S          0.00019  -0.00002   0.00002  -0.00004  -0.00003
  68        2S         -0.00132  -0.00046   0.00057  -0.00005   0.00008
  69 9   C  1S         -0.20327   0.65812  -0.62913   0.00848   0.00843
  70        2S         -0.01001   0.03306  -0.03162   0.00041   0.00043
  71        2PX         0.00024  -0.00003  -0.00007  -0.00000  -0.00002
  72        2PY         0.00008   0.00020  -0.00020   0.00004   0.00004
  73        2PZ        -0.00000   0.00000  -0.00000   0.00000   0.00000
  74        3S          0.00030  -0.01362   0.01307  -0.00055  -0.00101
  75        3PX        -0.00203   0.00081   0.00053   0.00028   0.00020
  76        3PY        -0.00000  -0.00219   0.00174  -0.00022  -0.00033
  77        3PZ         0.00000  -0.00000   0.00000  -0.00000  -0.00000
  78        4XX         0.00214  -0.00593   0.00559  -0.00002  -0.00004
  79        4YY         0.00209  -0.00607   0.00575  -0.00003  -0.00003
  80        4ZZ         0.00203  -0.00628   0.00599  -0.00009  -0.00008
  81        4XY         0.00014  -0.00004   0.00003  -0.00002  -0.00002
  82        4XZ         0.00000   0.00000  -0.00000  -0.00000  -0.00000
  83        4YZ         0.00000  -0.00000   0.00000  -0.00000  -0.00000
  84 10  H  1S          0.00012  -0.00023   0.00014  -0.00001  -0.00001
  85        2S         -0.00027   0.00122  -0.00117  -0.00010  -0.00009
  86 11  C  1S          0.13711  -0.21831   0.20165  -0.04525  -0.04522
  87        2S          0.00697  -0.01129   0.01038  -0.00250  -0.00252
  88        2PX         0.00004  -0.00021   0.00024   0.00022   0.00021
  89        2PY        -0.00005   0.00019  -0.00018   0.00014   0.00014
  90        2PZ        -0.00000   0.00000  -0.00000  -0.00000  -0.00000
  91        3S         -0.00329   0.00836  -0.00669   0.00472   0.00484
  92        3PX         0.00003   0.00202  -0.00188  -0.00173  -0.00152
  93        3PY         0.00045  -0.00136   0.00075  -0.00060  -0.00059
  94        3PZ        -0.00000   0.00000  -0.00000   0.00000   0.00000
  95        4XX        -0.00123   0.00183  -0.00165   0.00011   0.00012
  96        4YY        -0.00126   0.00184  -0.00168   0.00019   0.00019
  97        4ZZ        -0.00129   0.00200  -0.00186   0.00033   0.00032
  98        4XY        -0.00002   0.00007  -0.00008  -0.00012  -0.00012
  99        4XZ        -0.00000   0.00000  -0.00000   0.00000   0.00000
 100        4YZ        -0.00000  -0.00000   0.00000   0.00000   0.00000
 101 12  H  1S         -0.00006   0.00001   0.00001  -0.00006  -0.00007
 102        2S          0.00043  -0.00052   0.00057  -0.00031  -0.00032
 103 13  C  1S          0.01038  -0.02186   0.02071   0.69829   0.69829
 104        2S          0.00046  -0.00103   0.00101   0.03491   0.03491
 105        2PX        -0.00001   0.00006  -0.00008   0.00005   0.00006
 106        2PY        -0.00004   0.00005  -0.00005   0.00015   0.00015
 107        2PZ        -0.00000  -0.00000   0.00000  -0.00000  -0.00000
 108        3S          0.00117  -0.00108   0.00043  -0.01232  -0.01218
 109        3PX         0.00001  -0.00081   0.00064  -0.00008  -0.00009
 110        3PY         0.00047  -0.00019   0.00000  -0.00184  -0.00176
 111        3PZ        -0.00000   0.00000  -0.00000   0.00000   0.00000
 112        4XX        -0.00016   0.00033  -0.00033  -0.00635  -0.00635
 113        4YY        -0.00014   0.00029  -0.00027  -0.00652  -0.00652
 114        4ZZ        -0.00013   0.00024  -0.00022  -0.00671  -0.00672
 115        4XY        -0.00003   0.00005  -0.00004  -0.00006  -0.00006
 116        4XZ         0.00000  -0.00000   0.00000   0.00000   0.00000
 117        4YZ        -0.00000  -0.00000   0.00000   0.00000   0.00000
 118 14  H  1S          0.00001   0.00004  -0.00004  -0.00024  -0.00023
 119        2S          0.00006  -0.00006   0.00006   0.00118   0.00120
 120 15  C  1S         -0.00160   0.00272  -0.00252  -0.05453  -0.05453
 121        2S         -0.00006   0.00014  -0.00015  -0.00309  -0.00309
 122        2PX        -0.00002  -0.00002   0.00002  -0.00023  -0.00024
 123        2PY        -0.00000  -0.00001   0.00000   0.00015   0.00015
 124        2PZ         0.00000  -0.00000   0.00000  -0.00000  -0.00000
 125        3S         -0.00049  -0.00025   0.00039   0.00480   0.00471
 126        3PX        -0.00028   0.00041  -0.00019   0.00202   0.00202
 127        3PY         0.00013   0.00026  -0.00021  -0.00052  -0.00049
 128        3PZ        -0.00000  -0.00000   0.00000   0.00000   0.00000
 129        4XX         0.00001  -0.00002   0.00003   0.00031   0.00030
 130        4YY         0.00002  -0.00004   0.00003   0.00030   0.00030
 131        4ZZ         0.00002  -0.00002   0.00002   0.00043   0.00043
 132        4XY         0.00000   0.00000  -0.00001   0.00007   0.00007
 133        4XZ        -0.00000  -0.00000   0.00000  -0.00000  -0.00000
 134        4YZ        -0.00000   0.00000  -0.00000   0.00000   0.00000
 135 16  H  1S          0.00001  -0.00004   0.00003  -0.00007  -0.00007
 136        2S         -0.00005   0.00000  -0.00003  -0.00033  -0.00033
 137 17  C  1S         -0.01038  -0.02186  -0.02071  -0.69829   0.69829
 138        2S         -0.00046  -0.00103  -0.00101  -0.03491   0.03491
 139        2PX        -0.00001  -0.00006  -0.00008   0.00005  -0.00006
 140        2PY        -0.00004  -0.00005  -0.00005   0.00015  -0.00015
 141        2PZ        -0.00000   0.00000   0.00000  -0.00000   0.00000
 142        3S         -0.00117  -0.00108  -0.00043   0.01232  -0.01218
 143        3PX         0.00001   0.00081   0.00064  -0.00008   0.00009
 144        3PY         0.00047   0.00019   0.00000  -0.00184   0.00176
 145        3PZ        -0.00000  -0.00000  -0.00000   0.00000  -0.00000
 146        4XX         0.00016   0.00033   0.00033   0.00635  -0.00635
 147        4YY         0.00014   0.00029   0.00027   0.00652  -0.00652
 148        4ZZ         0.00013   0.00024   0.00022   0.00671  -0.00672
 149        4XY         0.00003   0.00005   0.00004   0.00006  -0.00006
 150        4XZ        -0.00000  -0.00000  -0.00000  -0.00000   0.00000
 151        4YZ         0.00000  -0.00000  -0.00000  -0.00000   0.00000
 152 18  H  1S         -0.00001   0.00004   0.00004   0.00024  -0.00023
 153        2S         -0.00006  -0.00006  -0.00006  -0.00118   0.00120
 154 19  C  1S          0.00160   0.00272   0.00252   0.05453  -0.05453
 155        2S          0.00006   0.00014   0.00015   0.00309  -0.00309
 156        2PX        -0.00002   0.00002   0.00002  -0.00023   0.00024
 157        2PY        -0.00000   0.00001   0.00000   0.00015  -0.00015
 158        2PZ         0.00000   0.00000   0.00000  -0.00000   0.00000
 159        3S          0.00049  -0.00025  -0.00039  -0.00480   0.00471
 160        3PX        -0.00028  -0.00041  -0.00019   0.00202  -0.00202
 161        3PY         0.00013  -0.00026  -0.00021  -0.00052   0.00049
 162        3PZ        -0.00000   0.00000   0.00000   0.00000  -0.00000
 163        4XX        -0.00001  -0.00002  -0.00003  -0.00031   0.00030
 164        4YY        -0.00002  -0.00004  -0.00003  -0.00030   0.00030
 165        4ZZ        -0.00002  -0.00002  -0.00002  -0.00043   0.00043
 166        4XY        -0.00000   0.00000   0.00001  -0.00007   0.00007
 167        4XZ         0.00000  -0.00000  -0.00000   0.00000  -0.00000
 168        4YZ         0.00000   0.00000   0.00000  -0.00000   0.00000
 169 20  H  1S         -0.00001  -0.00004  -0.00003   0.00007  -0.00007
 170        2S          0.00005   0.00000   0.00003   0.00033  -0.00033
 171 21  C  1S          0.00007   0.00011   0.00011   0.01316  -0.01320
 172        2S          0.00001  -0.00001  -0.00001   0.00072  -0.00072
 173        2PX         0.00000  -0.00002  -0.00001   0.00001  -0.00001
 174        2PY         0.00000  -0.00000  -0.00001  -0.00001   0.00000
 175        2PZ        -0.00000  -0.00000  -0.00000   0.00000  -0.00000
 176        3S         -0.00001   0.00037   0.00025  -0.00034   0.00037
 177        3PX         0.00004  -0.00011  -0.00009  -0.00009   0.00008
 178        3PY        -0.00007  -0.00009  -0.00005   0.00021  -0.00021
 179        3PZ         0.00000   0.00000   0.00000  -0.00000   0.00000
 180        4XX        -0.00001  -0.00000  -0.00000  -0.00016   0.00016
 181        4YY         0.00000  -0.00000  -0.00000  -0.00014   0.00014
 182        4ZZ         0.00000   0.00000   0.00000  -0.00010   0.00010
 183        4XY         0.00000   0.00001   0.00001  -0.00002   0.00002
 184        4XZ         0.00000   0.00000   0.00000  -0.00000   0.00000
 185        4YZ        -0.00000  -0.00000  -0.00000   0.00000  -0.00000
 186 22  H  1S         -0.00000  -0.00001  -0.00001   0.00000  -0.00000
 187        2S         -0.00001  -0.00001  -0.00001   0.00008  -0.00008
 188 23  H  1S          0.00001  -0.00000  -0.00000  -0.00002   0.00002
 189        2S          0.00002  -0.00002  -0.00002   0.00000  -0.00001
 190 24  H  1S         -0.00000  -0.00001  -0.00001   0.00000  -0.00000
 191        2S         -0.00001  -0.00001  -0.00001   0.00008  -0.00008
 192 25  C  1S         -0.00007   0.00011  -0.00011  -0.01316  -0.01320
 193        2S         -0.00001  -0.00001   0.00001  -0.00072  -0.00072
 194        2PX         0.00000   0.00002  -0.00001   0.00001   0.00001
 195        2PY         0.00000   0.00000  -0.00001  -0.00001  -0.00000
 196        2PZ        -0.00000   0.00000  -0.00000   0.00000   0.00000
 197        3S          0.00001   0.00037  -0.00025   0.00034   0.00037
 198        3PX         0.00004   0.00011  -0.00009  -0.00009  -0.00008
 199        3PY        -0.00007   0.00009  -0.00005   0.00021   0.00021
 200        3PZ         0.00000  -0.00000   0.00000  -0.00000  -0.00000
 201        4XX         0.00001  -0.00000   0.00000   0.00016   0.00016
 202        4YY        -0.00000  -0.00000   0.00000   0.00014   0.00014
 203        4ZZ        -0.00000   0.00000  -0.00000   0.00010   0.00010
 204        4XY        -0.00000   0.00001  -0.00001   0.00002   0.00002
 205        4XZ        -0.00000   0.00000  -0.00000   0.00000   0.00000
 206        4YZ         0.00000  -0.00000   0.00000  -0.00000  -0.00000
[...]
    11  C   -0.000000   0.000000   0.000000   0.000000  -0.000000   0.000000
    12  H    0.000000   0.000000  -0.000000   0.000000   0.000000   0.000000
    13  C    0.000000  -0.000000   0.000000  -0.000000   0.000000  -0.000000
    14  H   -0.000000   0.000000   0.000000  -0.000000  -0.000000  -0.000000
    15  C    0.000000   0.000000   0.000000   0.000000   0.000000   0.000000
    16  H    0.000000  -0.000000   0.000000   0.000000   0.000000   0.000000
    17  C    0.641141  -0.046647  -0.017711  -0.000957  -0.005532  -0.000953
    18  H   -0.054010   0.006622  -0.009820   0.000117   0.006606   0.000117
    19  C    4.909262   0.364828   0.363583  -0.030774  -0.035917  -0.030773
    20  H    0.364828   0.609172  -0.056952  -0.000707   0.004629  -0.000710
    21  C    0.363583  -0.056952   5.099599   0.366872   0.373938   0.366872
    22  H   -0.030774  -0.000707   0.366872   0.572679  -0.028136  -0.037077
    23  H   -0.035917   0.004629   0.373938  -0.028136   0.557964  -0.028138
    24  H   -0.030773  -0.000710   0.366872  -0.037077  -0.028138   0.572690
    25  C    0.000000   0.000000   0.000000   0.000000   0.000000   0.000000
    26  H    0.000000   0.000000   0.000000   0.000000   0.000000   0.000000
    27  H    0.000000   0.000000   0.000000   0.000000   0.000000   0.000000
    28  H    0.000000   0.000000   0.000000   0.000000   0.000000   0.000000
              25         26         27         28
     1  C    0.000000   0.000000   0.000000  -0.000000
     2  H   -0.000000   0.000000   0.000000   0.000000
     3  C    0.000000  -0.000000  -0.000000   0.000000
     4  H    0.000000  -0.000000  -0.000000   0.000000
     5  C   -0.000000  -0.000000  -0.000000   0.000000
     6  H    0.000000   0.000000   0.000000  -0.000000
     7  C    0.000002  -0.000000  -0.000000   0.000000
     8  H   -0.000000   0.000000   0.000000  -0.000000
     9  C   -0.000218   0.000004   0.000004   0.000006
    10  H   -0.000005   0.000000   0.000000   0.000000
    11  C    0.004226  -0.000104  -0.000104   0.000192
    12  H    0.000101  -0.000000  -0.000000   0.000012
    13  C   -0.017711  -0.000957  -0.000953  -0.005532
    14  H   -0.009820   0.000117   0.000117   0.006606
    15  C    0.363583  -0.030774  -0.030773  -0.035917
    16  H   -0.056952  -0.000707  -0.000710   0.004629
    17  C    0.000000  -0.000000  -0.000000   0.000000
    18  H    0.000000  -0.000000  -0.000000  -0.000000
    19  C    0.000000   0.000000   0.000000   0.000000
    20  H    0.000000   0.000000   0.000000   0.000000
    21  C    0.000000   0.000000   0.000000   0.000000
    22  H    0.000000   0.000000   0.000000   0.000000
    23  H    0.000000   0.000000   0.000000   0.000000
    24  H    0.000000   0.000000   0.000000   0.000000
    25  C    5.099599   0.366872   0.366872   0.373938
    26  H    0.366872   0.572679  -0.037077  -0.028136
    27  H    0.366872  -0.037077   0.572690  -0.028138
    28  H    0.373938  -0.028136  -0.028138   0.557964
 Mulliken charges:
               1
     1  C   -0.124427
     2  H    0.119953
     3  C   -0.125544
     4  H    0.119857
     5  C   -0.124718
     6  H    0.120139
     7  C   -0.124718
     8  H    0.120139
     9  C   -0.125544
    10  H    0.119857
    11  C   -0.124427
    12  H    0.119953
    13  C   -0.099730
    14  H    0.116869
    15  C   -0.106437
    16  H    0.123992
    17  C   -0.099730
    18  H    0.116869
    19  C   -0.106437
    20  H    0.123992
    21  C   -0.490488
    22  H    0.158084
    23  H    0.154377
    24  H    0.158073
    25  C   -0.490488
    26  H    0.158084
    27  H    0.158073
    28  H    0.154377
 Sum of Mulliken charges =  -0.00000
 Mulliken charges with hydrogens summed into heavy atoms:
               1
     1  C   -0.004474
     3  C   -0.005687
     5  C   -0.004578
     7  C   -0.004578
     9  C   -0.005687
    11  C   -0.004474
    13  C    0.017139
    15  C    0.017555
    17  C    0.017139
    19  C    0.017555
    21  C   -0.019954
    25  C   -0.019954
 Electronic spatial extent (au):  <R**2>=           6592.3045
 Charge=              0.0000 electrons
 Dipole moment (field-independent basis, Debye):
    X=              0.0000    Y=             -0.0000    Z=             -0.0000  Tot=              0.0000
 Quadrupole moment (field-independent basis, Debye-Ang):
   XX=            -58.1128   YY=            -67.6066   ZZ=            -79.1063
   XY=             -0.8980   XZ=              0.0000   YZ=              0.0000
 Traceless Quadrupole moment (field-independent basis, Debye-Ang):
   XX=             10.1624   YY=              0.6686   ZZ=            -10.8310
   XY=             -0.8980   XZ=              0.0000   YZ=              0.0000
 Octapole moment (field-independent basis, Debye-Ang**2):
  XXX=             -0.0000  YYY=              0.0000  ZZZ=             -0.0000  XYY=             -0.0000
  XXY=              0.0000  XXZ=              0.0000  XZZ=              0.0000  YZZ=             -0.0000
  YYZ=              0.0000  XYZ=              0.0000
 Hexadecapole moment (field-independent basis, Debye-Ang**3):
 XXXX=          -7902.9317 YYYY=           -203.4596 ZZZZ=            -95.2852 XXXY=            -57.6076
 XXXZ=              0.0023 YYYX=              0.6315 YYYZ=              0.0011 ZZZX=             -0.0032
 ZZZY=             -0.0004 XXYY=          -1438.1748 XXZZ=          -1540.3042 YYZZ=            -55.0485
 XXYZ=             -0.0034 YYXZ=              0.0046 ZZXY=             -2.1219
 N-N= 5.507650861760D+02 E-N=-2.180760760524D+03  KE= 4.621400934549D+02
 Symmetry AG   KE= 2.316863809617D+02
 Symmetry AU   KE= 2.304537124932D+02
 Orbital energies and kinetic energies (alpha):
                                 1                 2
   1         O               -10.189062         15.880087
   2         O               -10.189062         15.880076
   3         O               -10.187203         15.872617
   4         O               -10.187133         15.875967
   5         O               -10.187076         15.876948
   6         O               -10.186469         15.883959
   7         O               -10.185909         15.884830
   8         O               -10.185870         15.886661
   9         O               -10.183988         15.881710
  10         O               -10.183988         15.881693
  11         O               -10.183315         15.882193
  12         O               -10.183315         15.882187
  13         O                -0.821530          1.510652
  14         O                -0.809101          1.508652
  15         O                -0.790069          1.504649
  16         O                -0.764470          1.500715
  17         O                -0.732256          1.498176
  18         O                -0.693568          1.484217
  19         O                -0.663186          1.572082
  20         O                -0.605189          1.585141
  21         O                -0.559533          1.020505
  22         O                -0.558513          1.453365
  23         O                -0.548196          1.157026
  24         O                -0.540192          1.235758
  25         O                -0.478257          1.109310
  26         O                -0.467511          1.228364
  27         O                -0.451840          1.219731
  28         O                -0.433974          1.203948
  29         O                -0.410932          0.943515
  30         O                -0.410914          0.943633
  31         O                -0.409633          1.380587
  32         O                -0.406440          1.199933
  33         O                -0.380538          1.213749
  34         O                -0.374724          1.398421
  35         O                -0.362114          1.416921
  36         O                -0.361899          1.173932
  37         O                -0.351585          1.175658
  38         O                -0.344590          1.190939
  39         O                -0.341590          0.962313
  40         O                -0.339275          1.293382
  41         O                -0.317076          0.999673
  42         O                -0.279896          1.056271
  43         O                -0.232198          1.132028
  44         O                -0.178019          1.227872
  45         V                -0.058208          1.310567
  46         V                 0.005773          1.406676
  47         V                 0.062517          1.467037
  48         V                 0.092721          0.850263
  49         V                 0.100392          1.431806
  50         V                 0.109154          0.881669
  51         V                 0.115194          1.312855
  52         V                 0.117752          0.967480
  53         V                 0.118140          0.965763
  54         V                 0.134674          0.933344
  55         V                 0.151372          1.107993
  56         V                 0.152129          1.059455
  57         V                 0.161264          1.003376
  58         V                 0.162410          1.135999
  59         V                 0.163954          0.980489
  60         V                 0.172977          0.904265
  61         V                 0.173164          0.909032
  62         V                 0.176191          1.129314
  63         V                 0.182268          1.023595
  64         V                 0.203401          1.181232
  65         V                 0.205802          1.209303
  66         V                 0.245654          2.066987
  67         V                 0.262242          1.783581
  68         V                 0.301058          1.931859
  69         V                 0.334270          1.211487
  70         V                 0.351184          1.086553
  71         V                 0.371318          1.775772
  72         V                 0.381095          1.372961
  73         V                 0.399628          1.386312
  74         V                 0.418643          1.705541
  75         V                 0.421260          1.841297
  76         V                 0.441110          1.896770
  77         V                 0.473881          1.843874
  78         V                 0.493143          1.747819
  79         V                 0.522378          1.945319
  80         V                 0.529499          1.903087
  81         V                 0.545082          1.873242
  82         V                 0.564018          2.266326
  83         V                 0.564560          1.968593
  84         V                 0.564775          2.415677
  85         V                 0.592250          2.068591
  86         V                 0.592914          2.225460
  87         V                 0.592973          1.958134
  88         V                 0.594083          1.982323
  89         V                 0.597169          1.919799
  90         V                 0.608158          1.975416
  91         V                 0.624085          2.037421
  92         V                 0.628776          2.129118
  93         V                 0.637421          2.216621
  94         V                 0.647274          1.999923
  95         V                 0.651958          2.437176
  96         V                 0.663252          2.104821
  97         V                 0.694913          2.264068
  98         V                 0.705684          2.053195
  99         V                 0.730684          2.068536
 100         V                 0.730769          2.074028
 101         V                 0.749145          2.244244
 102         V                 0.756217          2.178107
 103         V                 0.775636          2.564838
 104         V                 0.776262          2.562084
 105         V                 0.823210          2.776923
 106         V                 0.841856          2.809799
 107         V                 0.862864          2.550979
 108         V                 0.868506          2.829335
 109         V                 0.870707          2.575793
 110         V                 0.875968          2.514048
 111         V                 0.876277          2.518777
 112         V                 0.881370          2.552603
 113         V                 0.894381          2.572401
 114         V                 0.896237          2.946204
 115         V                 0.901463          2.436231
 116         V                 0.902803          2.648244
 117         V                 0.916726          2.730245
 118         V                 0.918949          2.777390
 119         V                 0.943401          2.508836
 120         V                 0.948207          2.662770
 121         V                 0.959893          2.670045
 122         V                 0.959909          2.511026
 123         V                 1.003448          2.469415
 124         V                 1.043581          2.096106
 125         V                 1.044864          2.328917
 126         V                 1.059553          2.286295
 127         V                 1.077716          2.318883
 128         V                 1.110631          2.180736
 129         V                 1.147085          2.364612
 130         V                 1.160394          2.215183
 131         V                 1.199529          2.353724
 132         V                 1.225753          2.320442
 133         V                 1.294255          2.449544
 134         V                 1.316159          2.477452
 135         V                 1.328262          2.486616
 136         V                 1.329383          2.495849
 137         V                 1.337533          2.502703
 138         V                 1.341366          2.533238
 139         V                 1.342543          2.452542
 140         V                 1.360443          2.520128
 141         V                 1.386778          2.447520
 142         V                 1.401966          2.555161
 143         V                 1.426237          2.508648
 144         V                 1.436968          2.571732
 145         V                 1.503492          2.658735
 146         V                 1.510614          2.765401
 147         V                 1.534892          2.757106
 148         V                 1.567283          2.734743
 149         V                 1.631966          2.809446
 150         V                 1.691941          2.875847
 151         V                 1.736910          2.924152
 152         V                 1.770852          2.996414
 153         V                 1.773793          3.009234
 154         V                 1.832884          3.231609
 155         V                 1.833320          3.108471
 156         V                 1.858311          3.180822
 157         V                 1.878462          3.217086
 158         V                 1.886404          3.003010
 159         V                 1.916188          3.188071
 160         V                 1.918063          3.281521
 161         V                 1.920706          3.057069
 162         V                 1.930887          3.293568
 163         V                 1.982040          3.145799
 164         V                 1.992605          3.383676
 165         V                 2.002106          3.297955
 166         V                 2.013919          3.432279
 167         V                 2.065360          3.264044
 168         V                 2.110225          3.599933
 169         V                 2.142208          3.573470
 170         V                 2.158565          3.540869
 171         V                 2.160068          3.401708
 172         V                 2.174967          3.540155
 173         V                 2.230166          3.655807
 174         V                 2.252235          3.543721
 175         V                 2.252530          3.673816
 176         V                 2.296541          3.838008
 177         V                 2.319004          3.640427
 178         V                 2.328653          3.789741
 179         V                 2.332474          3.781782
 180         V                 2.355445          3.643502
 181         V                 2.379181          3.872698
 182         V                 2.389982          3.829641
 183         V                 2.430306          3.955369
 184         V                 2.441261          3.705704
 185         V                 2.483200          3.731080
 186         V                 2.485540          3.745051
 187         V                 2.514451          3.772331
 188         V                 2.517514          3.777703
 189         V                 2.568278          4.161638
 190         V                 2.633352          4.380564
 191         V                 2.797808          4.599940
 192         V                 2.817030          4.696991
 193         V                 2.911819          4.676280
 194         V                 2.913448          4.676586
 195         V                 2.920755          4.645368
 196         V                 2.938001          4.753014
 197         V                 3.024965          4.777645
 198         V                 3.029909          4.862576
 199         V                 3.117082          4.963041
 200         V                 3.119568          4.975102
 201         V                 4.095728         10.187673
 202         V                 4.100379         10.186419
 203         V                 4.111705         10.186387
 204         V                 4.130687         10.178400
 205         V                 4.158448         10.173378
 206         V                 4.186676         10.152252
 207         V                 4.266211         10.168320
 208         V                 4.311399         10.161739
 209         V                 4.361448         10.140265
 210         V                 4.426701         10.120268
 211         V                 4.498653         10.098132
 212         V                 4.556742         10.077958
 Total kinetic energy from orbitals= 4.621400934549D+02
 Leave Link  601 at Mon Jun  7 10:27:36 2021, MaxMem=    33554432 cpu:         0.5
 (Enter /opt/app/gaussian09/e01/g09/l9999.exe)
 1\1\GINC-NB-0138\SP\RB3LYP TD-FC\6-31G(d)\C12H16\ROOT\07-Jun-2021\0\\#
 p td b3lyp/6-31g(d) geom=connectivity pop=full\\Title Card Required\\0
 ,1\C,0,3.06559482,-0.38046172,0.00000292\H,0,3.04843433,-1.47141228,-0
 .00001407\C,0,1.88498857,0.29044047,0.00003466\H,0,1.90375324,1.381479
 51,-0.00005892\C,0,0.59122854,-0.33612398,-0.00001681\H,0,0.5716356,-1
 .42707455,-0.00009197\C,0,-0.59122853,0.336124,0.00001632\H,0,-0.57163
 558,1.42707456,0.00009153\C,0,-1.88498857,-0.29044046,-0.00003511\H,0,
 -1.90375324,-1.38147951,0.00005821\C,0,-3.06559482,0.38046172,-0.00000
 298\H,0,-3.04843434,1.47141228,0.00001432\C,0,-4.3657615,-0.25046823,0
 .00010171\H,0,-4.37935666,-1.34195628,0.00006295\C,0,-5.53788039,0.414
 07504,0.00000199\H,0,-5.5177897,1.50521827,-0.00002246\C,0,4.3657615,0
 .25046823,-0.00010172\H,0,4.37935666,1.34195627,-0.00006314\C,0,5.5378
 8039,-0.41407504,-0.00000164\H,0,5.5177897,-1.50521827,0.00002305\C,0,
 6.89246493,0.22607669,0.00003406\H,0,7.47770777,-0.07638263,-0.8798719
 4\H,0,6.82228153,1.31907475,0.00031197\H,0,7.47781111,-0.07678923,0.87
 974887\C,0,-6.89246493,-0.22607671,-0.00003358\H,0,-7.47770761,0.07638
 244,0.87987259\H,0,-7.47781127,0.07678939,-0.87974822\H,0,-6.82228153,
 -1.31907476,-0.00031173\\Version=ES64L-G09RevE.01\State=1-AG\HF=-466.8
 534657\RMSD=7.801e-09\PG=CI [X(C12H16)]\\@


 IT IS IMPOSSIBLE TO MEDITATE ON TIME AND THE MYSTERY 
 OF NATURE WITHOUT AN OVERWHELMING EMOTION AT THE
 LIMITATIONS OF HUMAN INTELLIGENCE.

                                         -- ALFRED NORTH WHITEHEAD
 Job cpu time:       0 days  0 hours  2 minutes 25.9 seconds.
 File lengths (MBytes):  RWF=     78 Int=      0 D2E=      0 Chk=      8 Scr=      1
 Normal termination of Gaussian 09 at Mon Jun  7 10:27:37 2021.
