 Entering Link 1 = C:\G09W\l1.exe PID=     17884.
  
 Copyright (c) 1988,1990,1992,1993,1995,1998,2003,2009,2013,
            Gaussian, Inc.  All Rights Reserved.
  
 This is part of the Gaussian(R) 09 program.  It is based on
 the Gaussian(R) 03 system (copyright 2003, Gaussian, Inc.),
 the Gaussian(R) 98 system (copyright 1998, Gaussian, Inc.),
 the Gaussian(R) 94 system (copyright 1995, Gaussian, Inc.),
 the Gaussian 92(TM) system (copyright 1992, Gaussian, Inc.),
 the Gaussian 90(TM) system (copyright 1990, Gaussian, Inc.),
 the Gaussian 88(TM) system (copyright 1988, Gaussian, Inc.),
 the Gaussian 86(TM) system (copyright 1986, Carnegie Mellon
 University), and the Gaussian 82(TM) system (copyright 1983,
 Carnegie Mellon University). Gaussian is a federally registered
 trademark of Gaussian, Inc.
  
 This software contains proprietary and confidential information,
 including trade secrets, belonging to Gaussian, Inc.
  
 This software is provided under written license and may be
 used, copied, transmitted, or stored only in accord with that
 written license.
  
 The following legend is applicable only to US Government
 contracts under FAR:
  
                    RESTRICTED RIGHTS LEGEND
  
 Use, reproduction and disclosure by the US Government is
 subject to restrictions as set forth in subparagraphs (a)
 and (c) of the Commercial Computer Software - Restricted
 Rights clause in FAR 52.227-19.
  
 Gaussian, Inc.
 340 Quinnipiac St., Bldg. 40, Wallingford CT 06492
  
  
 ---------------------------------------------------------------
 Warning -- This program may not be used in any manner that
 competes with the business of Gaussian, Inc. or will provide
 assistance to any competitor of Gaussian, Inc.  The licensee
 of this program is prohibited from giving any competitor of
 Gaussian, Inc. access to this program.  By using this program,
 the user acknowledges that Gaussian, Inc. is engaged in the
 business of creating and licensing software in the field of
 computational chemistry and represents and warrants to the
 licensee that it is not a competitor of Gaussian, Inc. and that
 it will not use this program in any manner prohibited above.
 ---------------------------------------------------------------
  

 Cite this work as:
 Gaussian 09, Revision D.01,
 M. J. Frisch, G. W. Trucks, H. B. Schlegel, G. E. Scuseria, 
 M. A. Robb, J. R. Cheeseman, G. Scalmani, V. Barone, B. Mennucci, 
 G. A. Petersson, H. Nakatsuji, M. Caricato, X. Li, H. P. Hratchian, 
 A. F. Izmaylov, J. Bloino, G. Zheng, J. L. Sonnenberg, M. Hada, 
 M. Ehara, K. Toyota, R. Fukuda, J. Hasegawa, M. Ishida, T. Nakajima, 
 Y. Honda, O. Kitao, H. Nakai, T. Vreven, J. A. Montgomery, Jr., 
 J. E. Peralta, F. Ogliaro, M. Bearpark, J. J. Heyd, E. Brothers, 
 K. N. Kudin, V. N. Staroverov, T. Keith, R. Kobayashi, J. Normand, 
 K. Raghavachari, A. Rendell, J. C. Burant, S. S. Iyengar, J. Tomasi, 
 M. Cossi, N. Rega, J. M. Millam, M. Klene, J. E. Knox, J. B. Cross, 
 V. Bakken, C. Adamo, J. Jaramillo, R. Gomperts, R. E. Stratmann, 
 O. Yazyev, A. J. Austin, R. Cammi, C. Pomelli, J. W. Ochterski, 
 R. L. Martin, K. Morokuma, V. G. Zakrzewski, G. A. Voth, 
 P. Salvador, J. J. Dannenberg, S. Dapprich, A. D. Daniels, 
 O. Farkas, J. B. Foresman, J. V. Ortiz, J. Cioslowski, 
 and D. J. Fox, Gaussian, Inc., Wallingford CT, 2013.
 
 ******************************************
 Gaussian 09:  EM64W-G09RevD.01 13-Apr-2013
                05-Jun-2021 
 ******************************************
 %chk=C:\G09W\mine\substituent\mini\mini_1_pp_td.chk
 ----------------------------------------------------------------------
 #p td=(nstates=10) b3lyp/6-31g(d) geom=connectivity pop=full scf=tight
 ----------------------------------------------------------------------
 1/38=1,57=2/1;
 2/12=2,17=6,18=5,40=1/2;
 3/5=1,6=6,7=1,11=9,16=1,25=1,30=1,74=-5/1,2,8,3;
 4//1;
 5/5=2,32=2,38=5/2;
 8/6=1,10=2,108=10/1;
 9/41=10,42=1,70=2/14;
 6/7=3/1;
 99/5=1,9=1/99;
 Leave Link    1 at Sat Jun 05 22:35:28 2021, MaxMem=           0 cpu:         0.0
 (Enter C:\G09W\l101.exe)
 ------------------------------
 Ethylene Geometry Optimization
 ------------------------------
 Symbolic Z-matrix:
 Charge =  0 Multiplicity = 1
 C                     0.03256  0.        -0.66694 
 C                    -0.03256   0.        0.66694 
 H                    -0.90029  0.        -1.23411 
 H                     0.90029   0.        1.23411 
 C                     1.31336  0.        -1.4722 
 H                     1.92922  -0.88274  -1.25768 
 H                     1.10833   0.       -2.54749 
 H                     1.92923   0.88274  -1.25767 
 C                    -1.31336   0.        1.4722 
 H                    -1.10833  0.         2.54749 
 H                    -1.92922   0.88274   1.25768 
 H                    -1.92923  -0.88274   1.25767 
 
 NAtoms=     12 NQM=       12 NQMF=       0 NMMI=      0 NMMIF=      0
                NMic=       0 NMicF=      0.
                    Isotopes and Nuclear Properties:
 (Nuclear quadrupole moments (NQMom) in fm**2, nuclear magnetic moments (NMagM)
  in nuclear magnetons)

  Atom         1           2           3           4           5           6           7           8           9          10
 IAtWgt=          12          12           1           1          12           1           1           1          12           1
 AtmWgt=  12.0000000  12.0000000   1.0078250   1.0078250  12.0000000   1.0078250   1.0078250   1.0078250  12.0000000   1.0078250
 NucSpn=           0           0           1           1           0           1           1           1           0           1
 AtZEff=   0.0000000   0.0000000   0.0000000   0.0000000   0.0000000   0.0000000   0.0000000   0.0000000   0.0000000   0.0000000
 NQMom=    0.0000000   0.0000000   0.0000000   0.0000000   0.0000000   0.0000000   0.0000000   0.0000000   0.0000000   0.0000000
 NMagM=    0.0000000   0.0000000   2.7928460   2.7928460   0.0000000   2.7928460   2.7928460   2.7928460   0.0000000   2.7928460
 AtZNuc=   6.0000000   6.0000000   1.0000000   1.0000000   6.0000000   1.0000000   1.0000000   1.0000000   6.0000000   1.0000000

  Atom        11          12
 IAtWgt=           1           1
 AtmWgt=   1.0078250   1.0078250
 NucSpn=           1           1
 AtZEff=   0.0000000   0.0000000
 NQMom=    0.0000000   0.0000000
 NMagM=    2.7928460   2.7928460
 AtZNuc=   1.0000000   1.0000000
 Leave Link  101 at Sat Jun 05 22:35:28 2021, MaxMem=    33554432 cpu:         0.0
 (Enter C:\G09W\l202.exe)
                          Input orientation:                          
 ---------------------------------------------------------------------
 Center     Atomic      Atomic             Coordinates (Angstroms)
 Number     Number       Type             X           Y           Z
 ---------------------------------------------------------------------
      1          6           0        0.032557   -0.000001   -0.666938
      2          6           0       -0.032557    0.000001    0.666938
      3          1           0       -0.900293   -0.000005   -1.234106
      4          1           0        0.900293    0.000005    1.234106
      5          6           0        1.313364    0.000000   -1.472204
      6          1           0        1.929223   -0.882740   -1.257680
      7          1           0        1.108330    0.000004   -2.547489
      8          1           0        1.929226    0.882736   -1.257673
      9          6           0       -1.313364    0.000000    1.472204
     10          1           0       -1.108330   -0.000004    2.547489
     11          1           0       -1.929223    0.882740    1.257680
     12          1           0       -1.929226   -0.882736    1.257673
 ---------------------------------------------------------------------
                    Distance matrix (angstroms):
                    1          2          3          4          5
     1  C    0.000000
     2  C    1.335464   0.000000
     3  H    1.091737   2.089720   0.000000
     4  H    2.089720   1.091737   3.055189   0.000000
     5  C    1.512918   2.527337   2.226425   2.737652   0.000000
     6  H    2.173832   2.886515   2.964108   2.836712   1.097512
     7  H    2.166509   3.410889   2.399905   3.787313   1.094659
     8  H    2.173832   2.886510   2.964113   2.836703   1.097512
     9  C    2.527337   1.512918   2.737652   2.226425   3.945788
    10  H    3.410889   2.166509   3.787313   2.399905   4.692818
    11  H    2.886515   2.173832   2.836712   2.964108   4.329650
    12  H    2.886510   2.173832   2.836703   2.964113   4.329647
                    6          7          8          9         10
     6  H    0.000000
     7  H    1.765421   0.000000
     8  H    1.765476   1.765421   0.000000
     9  C    4.329650   4.692818   4.329647   0.000000
    10  H    4.948259   5.556293   4.948257   1.094659   0.000000
    11  H    4.932704   4.948259   4.605935   1.097512   1.765421
    12  H    4.605935   4.948257   4.932699   1.097512   1.765421
                   11         12
    11  H    0.000000
    12  H    1.765476   0.000000
 Stoichiometry    C4H8
 Framework group  CI[X(C4H8)]
 Deg. of freedom    15
 Full point group                 CI      NOp   2
 Largest Abelian subgroup         CI      NOp   2
 Largest concise Abelian subgroup CI      NOp   2
                         Standard orientation:                         
 ---------------------------------------------------------------------
 Center     Atomic      Atomic             Coordinates (Angstroms)
 Number     Number       Type             X           Y           Z
 ---------------------------------------------------------------------
      1          6           0        0.032557   -0.000001   -0.666938
      2          6           0       -0.032557    0.000001    0.666938
      3          1           0       -0.900293   -0.000005   -1.234106
      4          1           0        0.900293    0.000005    1.234106
      5          6           0        1.313364    0.000000   -1.472204
      6          1           0        1.929223   -0.882740   -1.257680
      7          1           0        1.108330    0.000004   -2.547489
      8          1           0        1.929226    0.882736   -1.257673
      9          6           0       -1.313364    0.000000    1.472204
     10          1           0       -1.108330   -0.000004    2.547489
     11          1           0       -1.929223    0.882740    1.257680
     12          1           0       -1.929226   -0.882736    1.257673
 ---------------------------------------------------------------------
 Rotational constants (GHZ):     34.5955395      3.6773067      3.4672601
 Leave Link  202 at Sat Jun 05 22:35:28 2021, MaxMem=    33554432 cpu:         0.0
 (Enter C:\G09W\l301.exe)
 Standard basis: 6-31G(d) (6D, 7F)
 Ernie: Thresh=  0.10000D-02 Tol=  0.10000D-05 Strict=F.
 There are    38 symmetry adapted cartesian basis functions of AG  symmetry.
 There are    38 symmetry adapted cartesian basis functions of AU  symmetry.
 There are    38 symmetry adapted basis functions of AG  symmetry.
 There are    38 symmetry adapted basis functions of AU  symmetry.
    76 basis functions,   144 primitive gaussians,    76 cartesian basis functions
    16 alpha electrons       16 beta electrons
       nuclear repulsion energy       115.1931600411 Hartrees.
 IExCor=  402 DFT=T Ex+Corr=B3LYP ExCW=0 ScaHFX=  0.200000
 ScaDFX=  0.800000  0.720000  1.000000  0.810000 ScalE2=  1.000000  1.000000
 IRadAn=      0 IRanWt=     -1 IRanGd=            0 ICorTp=0 IEmpDi=  4
 NAtoms=   12 NActive=   12 NUniq=    6 SFac= 4.00D+00 NAtFMM=   60 NAOKFM=F Big=F
 Integral buffers will be    131072 words long.
 Regular integral format.
 Two-electron integral symmetry is turned on.
 Leave Link  301 at Sat Jun 05 22:35:28 2021, MaxMem=    33554432 cpu:         0.0
 (Enter C:\G09W\l302.exe)
 NPDir=0 NMtPBC=     1 NCelOv=     1 NCel=       1 NClECP=     1 NCelD=      1
         NCelK=      1 NCelE2=     1 NClLst=     1 CellRange=     0.0.
 One-electron integrals computed using PRISM.
 One-electron integral symmetry used in STVInt
 NBasis=    76 RedAO= T EigKep=  3.15D-03  NBF=    38    38
 NBsUse=    76 1.00D-06 EigRej= -1.00D+00 NBFU=    38    38
 Precomputing XC quadrature grid using
 IXCGrd= 4 IRadAn=           0 IRanWt=          -1 IRanGd=           0 AccXCQ= 0.00D+00.
 Generated NRdTot=       0 NPtTot=           0 NUsed=           0 NTot=          32
 NSgBfM=    76    76    76    76    76 MxSgAt=    12 MxSgA2=    12.
 Leave Link  302 at Sat Jun 05 22:35:29 2021, MaxMem=    33554432 cpu:         0.0
 (Enter C:\G09W\l308.exe)
 Leave Link  308 at Sat Jun 05 22:35:31 2021, MaxMem=    33554432 cpu:         0.0
 (Enter C:\G09W\l303.exe)
 DipDrv:  MaxL=1.
 Leave Link  303 at Sat Jun 05 22:35:31 2021, MaxMem=    33554432 cpu:         0.0
 (Enter C:\G09W\l401.exe)
 ExpMin= 1.61D-01 ExpMax= 3.05D+03 ExpMxC= 4.57D+02 IAcc=1 IRadAn=         1 AccDes= 0.00D+00
 Harris functional with IExCor=  402 and IRadAn=       1 diagonalized for initial guess.
 HarFok:  IExCor=  402 AccDes= 0.00D+00 IRadAn=         1 IDoV= 1 UseB2=F ITyADJ=14
 ICtDFT=  3500011 ScaDFX=  1.000000  1.000000  1.000000  1.000000
 FoFCou: FMM=F IPFlag=           0 FMFlag=      100000 FMFlg1=           0
         NFxFlg=           0 DoJE=T BraDBF=F KetDBF=T FulRan=T
         wScrn=  0.000000 ICntrl=     500 IOpCl=  0 I1Cent=   200000004 NGrid=           0
         NMat0=    1 NMatS0=      1 NMatT0=    0 NMatD0=    1 NMtDS0=    0 NMtDT0=    0
 Petite list used in FoFCou.
 Harris En= -157.282696605393    
 JPrj=0 DoOrth=F DoCkMO=F.
 Initial guess orbital symmetries:
       Occupied  (AU) (AG) (AG) (AU) (AG) (AU) (AG) (AU) (AU) (AG)
                 (AU) (AG) (AU) (AG) (AG) (AU)
       Virtual   (AG) (AU) (AG) (AU) (AG) (AU) (AU) (AU) (AG) (AG)
                 (AG) (AU) (AG) (AU) (AU) (AG) (AU) (AG) (AU) (AG)
                 (AG) (AU) (AU) (AG) (AG) (AU) (AU) (AG) (AG) (AU)
                 (AU) (AG) (AU) (AG) (AG) (AU) (AG) (AU) (AU) (AU)
                 (AG) (AU) (AG) (AG) (AU) (AG) (AG) (AU) (AG) (AU)
                 (AU) (AG) (AG) (AU) (AU) (AG) (AG) (AU) (AG) (AU)
 The electronic state of the initial guess is 1-AG.
 Leave Link  401 at Sat Jun 05 22:35:31 2021, MaxMem=    33554432 cpu:         0.0
 (Enter C:\G09W\l502.exe)
 Closed shell SCF:
 Using DIIS extrapolation, IDIIS=  1040.
 Integral symmetry usage will be decided dynamically.
 Keep R1 ints in memory in symmetry-blocked form, NReq=6467888.
 IVT=       37034 IEndB=       37034 NGot=    33554432 MDV=    31368822
 LenX=    31368822 LenY=    31362605
 Requested convergence on RMS density matrix=1.00D-08 within 128 cycles.
 Requested convergence on MAX density matrix=1.00D-06.
 Requested convergence on             energy=1.00D-06.
 No special actions if energy rises.
 FoFCou: FMM=F IPFlag=           0 FMFlag=           0 FMFlg1=           0
         NFxFlg=           0 DoJE=F BraDBF=F KetDBF=F FulRan=T
         wScrn=  0.000000 ICntrl=     600 IOpCl=  0 I1Cent=           0 NGrid=           0
         NMat0=    1 NMatS0=   2926 NMatT0=    0 NMatD0=    1 NMtDS0=    0 NMtDT0=    0
 Petite list used in FoFCou.
 Integral accuracy reduced to 1.0D-05 until final iterations.

 Cycle   1  Pass 0  IDiag  1:
 E= -157.047290291205    
 DIIS: error= 5.70D-02 at cycle   1 NSaved=   1.
 NSaved= 1 IEnMin= 1 EnMin= -157.047290291205     IErMin= 1 ErrMin= 5.70D-02
 ErrMax= 5.70D-02  0.00D+00 EMaxC= 1.00D-01 BMatC= 1.52D-01 BMatP= 1.52D-01
 IDIUse=3 WtCom= 4.30D-01 WtEn= 5.70D-01
 Coeff-Com:  0.100D+01
 Coeff-En:   0.100D+01
 Coeff:      0.100D+01
 Gap=     0.251 Goal=   None    Shift=    0.000
 GapD=    0.251 DampG=1.000 DampE=0.500 DampFc=0.5000 IDamp=-1.
 Damping current iteration by 5.00D-01
 RMSDP=1.14D-02 MaxDP=1.34D-01              OVMax= 1.69D-01

 Cycle   2  Pass 0  IDiag  1:
 E= -157.129027276354     Delta-E=       -0.081736985148 Rises=F Damp=T
 DIIS: error= 8.94D-03 at cycle   2 NSaved=   2.
 NSaved= 2 IEnMin= 2 EnMin= -157.129027276354     IErMin= 2 ErrMin= 8.94D-03
 ErrMax= 8.94D-03  0.00D+00 EMaxC= 1.00D-01 BMatC= 4.88D-03 BMatP= 1.52D-01
 IDIUse=3 WtCom= 9.11D-01 WtEn= 8.94D-02
 Coeff-Com:  0.359D-01 0.964D+00
 Coeff-En:   0.521D-01 0.948D+00
 Coeff:      0.374D-01 0.963D+00
 Gap=     0.258 Goal=   None    Shift=    0.000
 RMSDP=1.76D-03 MaxDP=1.63D-02 DE=-8.17D-02 OVMax= 9.10D-02

 Cycle   3  Pass 0  IDiag  1:
 E= -157.220000434506     Delta-E=       -0.090973158152 Rises=F Damp=F
 DIIS: error= 1.83D-03 at cycle   3 NSaved=   3.
 NSaved= 3 IEnMin= 3 EnMin= -157.220000434506     IErMin= 3 ErrMin= 1.83D-03
 ErrMax= 1.83D-03  0.00D+00 EMaxC= 1.00D-01 BMatC= 2.04D-04 BMatP= 4.88D-03
 IDIUse=3 WtCom= 9.82D-01 WtEn= 1.83D-02
 Coeff-Com: -0.109D-01 0.114D+00 0.897D+00
 Coeff-En:   0.000D+00 0.000D+00 0.100D+01
 Coeff:     -0.107D-01 0.112D+00 0.898D+00
 Gap=     0.255 Goal=   None    Shift=    0.000
 RMSDP=2.68D-04 MaxDP=2.78D-03 DE=-9.10D-02 OVMax= 4.55D-03

 Cycle   4  Pass 0  IDiag  1:
 E= -157.220196290061     Delta-E=       -0.000195855555 Rises=F Damp=F
 DIIS: error= 3.62D-04 at cycle   4 NSaved=   4.
 NSaved= 4 IEnMin= 4 EnMin= -157.220196290061     IErMin= 4 ErrMin= 3.62D-04
 ErrMax= 3.62D-04  0.00D+00 EMaxC= 1.00D-01 BMatC= 9.81D-06 BMatP= 2.04D-04
 IDIUse=3 WtCom= 9.96D-01 WtEn= 3.62D-03
 Coeff-Com: -0.139D-02 0.144D-02 0.188D+00 0.812D+00
 Coeff-En:   0.000D+00 0.000D+00 0.000D+00 0.100D+01
 Coeff:     -0.139D-02 0.143D-02 0.187D+00 0.813D+00
 Gap=     0.255 Goal=   None    Shift=    0.000
 RMSDP=4.73D-05 MaxDP=3.53D-04 DE=-1.96D-04 OVMax= 6.64D-04

 Cycle   5  Pass 0  IDiag  1:
 E= -157.220205437567     Delta-E=       -0.000009147506 Rises=F Damp=F
 DIIS: error= 3.50D-05 at cycle   5 NSaved=   5.
 NSaved= 5 IEnMin= 5 EnMin= -157.220205437567     IErMin= 5 ErrMin= 3.50D-05
 ErrMax= 3.50D-05  0.00D+00 EMaxC= 1.00D-01 BMatC= 1.08D-07 BMatP= 9.81D-06
 IDIUse=1 WtCom= 1.00D+00 WtEn= 0.00D+00
 Coeff-Com: -0.182D-03-0.313D-03 0.408D-01 0.197D+00 0.762D+00
 Coeff:     -0.182D-03-0.313D-03 0.408D-01 0.197D+00 0.762D+00
 Gap=     0.255 Goal=   None    Shift=    0.000
 RMSDP=7.03D-06 MaxDP=8.64D-05 DE=-9.15D-06 OVMax= 1.11D-04

 Initial convergence to 1.0D-05 achieved.  Increase integral accuracy.
 Cycle   6  Pass 1  IDiag  1:
 E= -157.220231753523     Delta-E=       -0.000026315956 Rises=F Damp=F
 DIIS: error= 1.99D-05 at cycle   1 NSaved=   1.
 NSaved= 1 IEnMin= 1 EnMin= -157.220231753523     IErMin= 1 ErrMin= 1.99D-05
 ErrMax= 1.99D-05  0.00D+00 EMaxC= 1.00D-01 BMatC= 3.69D-08 BMatP= 3.69D-08
 IDIUse=1 WtCom= 1.00D+00 WtEn= 0.00D+00
 Coeff-Com:  0.100D+01
 Coeff:      0.100D+01
 Gap=     0.255 Goal=   None    Shift=    0.000
 RMSDP=7.03D-06 MaxDP=8.64D-05 DE=-2.63D-05 OVMax= 8.66D-05

 Cycle   7  Pass 1  IDiag  1:
 E= -157.220231749072     Delta-E=        0.000000004451 Rises=F Damp=F
 DIIS: error= 2.13D-05 at cycle   2 NSaved=   2.
 NSaved= 2 IEnMin= 1 EnMin= -157.220231753523     IErMin= 1 ErrMin= 1.99D-05
 ErrMax= 2.13D-05  0.00D+00 EMaxC= 1.00D-01 BMatC= 4.27D-08 BMatP= 3.69D-08
 IDIUse=1 WtCom= 1.00D+00 WtEn= 0.00D+00
 Coeff-Com:  0.519D+00 0.481D+00
 Coeff:      0.519D+00 0.481D+00
 Gap=     0.255 Goal=   None    Shift=    0.000
 RMSDP=2.59D-06 MaxDP=3.42D-05 DE= 4.45D-09 OVMax= 4.96D-05

 Cycle   8  Pass 1  IDiag  1:
 E= -157.220231791040     Delta-E=       -0.000000041968 Rises=F Damp=F
 DIIS: error= 1.23D-06 at cycle   3 NSaved=   3.
 NSaved= 3 IEnMin= 3 EnMin= -157.220231791040     IErMin= 3 ErrMin= 1.23D-06
 ErrMax= 1.23D-06  0.00D+00 EMaxC= 1.00D-01 BMatC= 1.20D-10 BMatP= 3.69D-08
 IDIUse=1 WtCom= 1.00D+00 WtEn= 0.00D+00
 Coeff-Com: -0.122D-01 0.376D-01 0.975D+00
 Coeff:     -0.122D-01 0.376D-01 0.975D+00
 Gap=     0.255 Goal=   None    Shift=    0.000
 RMSDP=1.61D-07 MaxDP=1.94D-06 DE=-4.20D-08 OVMax= 2.29D-06

 Cycle   9  Pass 1  IDiag  1:
 E= -157.220231791150     Delta-E=       -0.000000000110 Rises=F Damp=F
 DIIS: error= 2.10D-07 at cycle   4 NSaved=   4.
 NSaved= 4 IEnMin= 4 EnMin= -157.220231791150     IErMin= 4 ErrMin= 2.10D-07
 ErrMax= 2.10D-07  0.00D+00 EMaxC= 1.00D-01 BMatC= 3.78D-12 BMatP= 1.20D-10
 IDIUse=1 WtCom= 1.00D+00 WtEn= 0.00D+00
 Coeff-Com: -0.811D-02 0.805D-02 0.293D+00 0.707D+00
 Coeff:     -0.811D-02 0.805D-02 0.293D+00 0.707D+00
 Gap=     0.255 Goal=   None    Shift=    0.000
 RMSDP=4.44D-08 MaxDP=3.92D-07 DE=-1.10D-10 OVMax= 6.40D-07

 Cycle  10  Pass 1  IDiag  1:
 E= -157.220231791157     Delta-E=       -0.000000000007 Rises=F Damp=F
 DIIS: error= 1.09D-07 at cycle   5 NSaved=   5.
 NSaved= 5 IEnMin= 5 EnMin= -157.220231791157     IErMin= 5 ErrMin= 1.09D-07
 ErrMax= 1.09D-07  0.00D+00 EMaxC= 1.00D-01 BMatC= 6.65D-13 BMatP= 3.78D-12
 IDIUse=1 WtCom= 1.00D+00 WtEn= 0.00D+00
 Coeff-Com: -0.287D-02 0.122D-02 0.678D-01 0.327D+00 0.607D+00
 Coeff:     -0.287D-02 0.122D-02 0.678D-01 0.327D+00 0.607D+00
 Gap=     0.255 Goal=   None    Shift=    0.000
 RMSDP=1.19D-08 MaxDP=1.38D-07 DE=-7.16D-12 OVMax= 1.95D-07

 Cycle  11  Pass 1  IDiag  1:
 E= -157.220231791156     Delta-E=        0.000000000001 Rises=F Damp=F
 DIIS: error= 7.48D-09 at cycle   6 NSaved=   6.
 NSaved= 6 IEnMin= 5 EnMin= -157.220231791157     IErMin= 6 ErrMin= 7.48D-09
 ErrMax= 7.48D-09  0.00D+00 EMaxC= 1.00D-01 BMatC= 4.47D-15 BMatP= 6.65D-13
 IDIUse=1 WtCom= 1.00D+00 WtEn= 0.00D+00
 Coeff-Com: -0.129D-03-0.127D-03-0.229D-04 0.246D-01 0.102D+00 0.873D+00
 Coeff:     -0.129D-03-0.127D-03-0.229D-04 0.246D-01 0.102D+00 0.873D+00
 Gap=     0.255 Goal=   None    Shift=    0.000
 RMSDP=1.09D-09 MaxDP=8.44D-09 DE= 1.42D-12 OVMax= 1.68D-08

 SCF Done:  E(RB3LYP) =  -157.220231791     A.U. after   11 cycles
            NFock= 11  Conv=0.11D-08     -V/T= 2.0105
 KE= 1.555889217161D+02 PE=-5.933731539179D+02 EE= 1.653708403695D+02
 Leave Link  502 at Sat Jun 05 22:35:36 2021, MaxMem=    33554432 cpu:         5.0
 (Enter C:\G09W\l801.exe)
 DoSCS=F DFT=T ScalE2(SS,OS)=  1.000000  1.000000
 ExpMin= 1.61D-01 ExpMax= 3.05D+03 ExpMxC= 4.57D+02 IAcc=3 IRadAn=         5 AccDes= 0.00D+00
 HarFok:  IExCor=  205 AccDes= 0.00D+00 IRadAn=         5 IDoV=-2 UseB2=F ITyADJ=14
 ICtDFT= 12500011 ScaDFX=  1.000000  1.000000  1.000000  1.000000
 Largest valence mixing into a core orbital is  5.46D-05
 Largest core mixing into a valence orbital is  1.04D-05
 Range of M.O.s used for correlation:     5    76
 NBasis=    76 NAE=    16 NBE=    16 NFC=     4 NFV=     0
 NROrb=     72 NOA=    12 NOB=    12 NVA=    60 NVB=    60
 Leave Link  801 at Sat Jun 05 22:35:36 2021, MaxMem=    33554432 cpu:         0.0
 (Enter C:\G09W\l914.exe)
 RHF ground state
 MDV=    33554432 DFT=T DoStab=F Mixed=T DoRPA=T DoScal=F NonHer=T
 Keep R1, R2, and R3 ints in memory in symmetry-blocked form, NReq=9351406.
 FoFCou: FMM=F IPFlag=           0 FMFlag=           0 FMFlg1=           0
         NFxFlg=           0 DoJE=F BraDBF=F KetDBF=F FulRan=T
         wScrn=  0.000000 ICntrl=     600 IOpCl=  0 I1Cent=           0 NGrid=           0
         NMat0=    1 NMatS0=   2926 NMatT0=    0 NMatD0=    1 NMtDS0=    0 NMtDT0=    0
 Petite list used in FoFCou.
 Making orbital integer symmetry assigments:
 Orbital symmetries:
       Occupied  (AG) (AU) (AG) (AU) (AG) (AU) (AG) (AU) (AU) (AG)
                 (AU) (AG) (AU) (AG) (AG) (AU)
       Virtual   (AG) (AG) (AU) (AU) (AG) (AU) (AU) (AG) (AG) (AU)
                 (AG) (AU) (AG) (AU) (AU) (AU) (AG) (AG) (AU) (AG)
                 (AG) (AU) (AU) (AG) (AG) (AU) (AG) (AU) (AG) (AU)
                 (AU) (AG) (AU) (AG) (AG) (AU) (AG) (AU) (AU) (AG)
                 (AU) (AU) (AG) (AG) (AU) (AG) (AU) (AG) (AG) (AU)
                 (AU) (AG) (AG) (AU) (AU) (AG) (AG) (AU) (AG) (AU)
    40 initial guesses have been made.
 Convergence on wavefunction:    0.001000000000000
 Davidson Disk Diagonalization:  ConvIn= 1.00D-03 SkipCon=T Conv= 1.00D-03.
 Max sub-space:   200 roots to seek:    40 dimension of matrix:         1440
 Iteration     1 Dimension    40 NMult     0 NNew     40
 CISAX will form    40 AO SS matrices at one time.
 NMat=    40 NSing=    40 JSym2X=-1.
 New state      2 was old state      4
 New state      3 was old state      2
 New state      4 was old state      3
 New state      5 was old state      7
 New state      6 was old state      5
 New state      7 was old state      6
 New state     10 was old state     11
 Excitation Energies [eV] at current iteration:
 Root      1 :     7.744425860076039
 Root      2 :     8.195376231433915
 Root      3 :     8.461049832415476
 Root      4 :     8.483555578415235
 Root      5 :     8.685458606631643
 Root      6 :     8.782986882073136
 Root      7 :     9.190141529336680
 Root      8 :     9.610779928304353
 Root      9 :    10.078997985384000
 Root     10 :    10.544631146596320
 Root     11 :    10.797088605247990
 Root     12 :    10.886450518170130
 Root     13 :    11.006764847290450
 Root     14 :    11.154364810867940
 Root     15 :    11.233905426324780
 Root     16 :    11.365898581268110
 Root     17 :    11.417716862517430
 Root     18 :    11.762104346843920
 Root     19 :    11.847695871119940
 Root     20 :    11.964217841422080
 Root     21 :    11.976799175190480
 Root     22 :    12.054633255367400
 Root     23 :    12.152193152100070
 Root     24 :    12.279888060958410
 Root     25 :    12.496472139562620
 Root     26 :    12.713236570727950
 Root     27 :    12.754766110936950
 Root     28 :    12.780057475983970
 Root     29 :    12.929583765962140
 Root     30 :    12.986156390605470
 Root     31 :    12.996900673790390
 Root     32 :    13.226942014857020
 Root     33 :    13.334646632832890
 Root     34 :    13.405258105782300
 Root     35 :    13.522532948664670
 Root     36 :    13.576970057184860
 Root     37 :    13.584258285399450
 Root     38 :    13.588737716626320
 Root     39 :    13.696192942767860
 Root     40 :    13.953387754985290
 Iteration     2 Dimension    60 NMult    40 NNew     20
 CISAX will form    20 AO SS matrices at one time.
 NMat=    20 NSing=    20 JSym2X=-1.
 Root      1 not converged, maximum delta is    0.082214541871620
 Root      2 not converged, maximum delta is    0.030495921961990
 Root      3 not converged, maximum delta is    0.027214249796150
 Root      4 not converged, maximum delta is    0.035083424675531
 Root      5 not converged, maximum delta is    0.101733390259833
 Root      6 not converged, maximum delta is    0.115659470498268
 Root      7 not converged, maximum delta is    0.027619646374923
 Root      8 not converged, maximum delta is    0.024263899466019
 Root      9 not converged, maximum delta is    0.041536285640763
 Root     10 not converged, maximum delta is    0.033228550728914
 Excitation Energies [eV] at current iteration:
 Root      1 :     7.049448928582615   Change is   -0.694976931493423
 Root      2 :     8.147440970681487   Change is   -0.047935260752428
 Root      3 :     8.428702388656697   Change is   -0.032347443758779
 Root      4 :     8.460706764356448   Change is   -0.022848814058787
 Root      5 :     8.653805520017279   Change is   -0.031653086614365
 Root      6 :     8.734850201969291   Change is   -0.048136680103845
 Root      7 :     9.151939224053953   Change is   -0.038202305282727
 Root      8 :     9.542859189947308   Change is   -0.067920738357047
 Root      9 :    10.043944178619150   Change is   -0.035053806764854
 Root     10 :    10.519062720711240   Change is   -0.025568425885077
 Iteration     3 Dimension    80 NMult    60 NNew     20
 CISAX will form    20 AO SS matrices at one time.
 NMat=    20 NSing=    20 JSym2X=-1.
 Root      1 not converged, maximum delta is    0.008391895990961
 Root      2 not converged, maximum delta is    0.001634454987966
 Root      3 not converged, maximum delta is    0.001697977181001
 Root      4 not converged, maximum delta is    0.001583784044066
 Root      5 not converged, maximum delta is    0.001354000883512
 Root      6 not converged, maximum delta is    0.001000385331504
 Root      7 not converged, maximum delta is    0.001040798239326
 Root      8 not converged, maximum delta is    0.001633891186537
 Root      9 not converged, maximum delta is    0.007324916650351
 Root     10 not converged, maximum delta is    0.001714551270368
 Excitation Energies [eV] at current iteration:
 Root      1 :     7.029993485744409   Change is   -0.019455442838206
 Root      2 :     8.146417514878028   Change is   -0.001023455803459
 Root      3 :     8.427905090297912   Change is   -0.000797298358785
 Root      4 :     8.460072589194937   Change is   -0.000634175161511
 Root      5 :     8.653414804340686   Change is   -0.000390715676593
 Root      6 :     8.734112794563105   Change is   -0.000737407406186
 Root      7 :     9.150874253325569   Change is   -0.001064970728385
 Root      8 :     9.540991107821276   Change is   -0.001868082126032
 Root      9 :    10.040544329789770   Change is   -0.003399848829376
 Root     10 :    10.518331012216050   Change is   -0.000731708495196
 Iteration     4 Dimension   100 NMult    80 NNew     20
 CISAX will form    20 AO SS matrices at one time.
 NMat=    20 NSing=    20 JSym2X=-1.
 Root      1 not converged, maximum delta is    0.003618851880236
 Root      2 has converged.
 Root      3 has converged.
 Root      4 has converged.
 Root      5 has converged.
 Root      6 has converged.
 Root      7 has converged.
 Root      8 has converged.
 Root      9 has converged.
 Root     10 has converged.
 Excitation Energies [eV] at current iteration:
 Root      1 :     7.028008982234256   Change is   -0.001984503510153
 Root      2 :     8.146388506085172   Change is   -0.000029008792856
 Root      3 :     8.427864940314755   Change is   -0.000040149983157
 Root      4 :     8.460051176204228   Change is   -0.000021412990709
 Root      5 :     8.653400336643855   Change is   -0.000014467696831
 Root      6 :     8.734098520200970   Change is   -0.000014274362135
 Root      7 :     9.150797538991618   Change is   -0.000076714333951
 Root      8 :     9.540912515013147   Change is   -0.000078592808128
 Root      9 :    10.040266333510120   Change is   -0.000277996279651
 Root     10 :    10.518289870332460   Change is   -0.000041141883589
 Iteration     5 Dimension   102 NMult   100 NNew      2
 CISAX will form     2 AO SS matrices at one time.
 NMat=     2 NSing=     2 JSym2X=-1.
 Root      1 has converged.
 Root      2 has converged.
 Root      3 has converged.
 Root      4 has converged.
 Root      5 has converged.
 Root      6 has converged.
 Root      7 has converged.
 Root      8 has converged.
 Root      9 has converged.
 Root     10 has converged.
 Excitation Energies [eV] at current iteration:
 Root      1 :     7.027921974507900   Change is   -0.000087007726357
 Root      2 :     8.146388506085122   Change is   -0.000000000000050
 Root      3 :     8.427864940314786   Change is    0.000000000000030
 Root      4 :     8.460051176204180   Change is   -0.000000000000048
 Root      5 :     8.653400336643760   Change is   -0.000000000000095
 Root      6 :     8.734098520200885   Change is   -0.000000000000085
 Root      7 :     9.150797538991350   Change is   -0.000000000000269
 Root      8 :     9.540912515012957   Change is   -0.000000000000190
 Root      9 :    10.040266333510050   Change is   -0.000000000000065
 Root     10 :    10.518289870332390   Change is   -0.000000000000062
 Convergence achieved on expansion vectors.
 ***********************************************************************
 Excited states from <AA,BB:AA,BB> singles matrix:
 ***********************************************************************
 
 1PDM for each excited state written to RWF  633
 Ground to excited state transition densities written to RWF  633
 Ground to excited state transition electric dipole moments (Au):
       state          X           Y           Z        Dip. S.      Osc.
         1        -0.7212      0.0000      1.3023      2.2162      0.3816
         2         0.0000      0.0000      0.0000      0.0000      0.0000
         3         0.0000     -0.0992      0.0000      0.0098      0.0020
         4         0.0000      0.0000      0.0000      0.0000      0.0000
         5         0.0000      0.0000      0.0000      0.0000      0.0000
         6         0.0000      0.0000      0.0000      0.0000      0.0000
         7         0.0000     -0.2449      0.0000      0.0600      0.0134
         8         0.0000      0.2591      0.0000      0.0671      0.0157
         9         0.0000      0.0000      0.0000      0.0000      0.0000
        10         0.0000      0.0000      0.0000      0.0000      0.0000
 Ground to excited state transition velocity dipole moments (Au):
       state          X           Y           Z        Dip. S.      Osc.
         1         0.2074      0.0000     -0.3492      0.1650      0.4258
         2         0.0000      0.0000      0.0000      0.0000      0.0000
         3         0.0000      0.0348      0.0000      0.0012      0.0026
         4         0.0000      0.0000      0.0000      0.0000      0.0000
         5         0.0000      0.0000      0.0000      0.0000      0.0000
         6         0.0000      0.0000      0.0000      0.0000      0.0000
         7         0.0000      0.1239      0.0000      0.0153      0.0304
         8         0.0000     -0.1115      0.0000      0.0124      0.0236
         9         0.0000      0.0000      0.0000      0.0000      0.0000
        10         0.0000      0.0000      0.0000      0.0000      0.0000
 Ground to excited state transition magnetic dipole moments (Au):
       state          X           Y           Z
         1         0.0000      0.0000      0.0000
         2        -0.1510      0.0000      1.2664
         3         0.0000      0.0000      0.0000
         4         0.2921      0.0000     -0.0280
         5        -1.2541      0.0000     -0.6252
         6         0.0925      0.0000      0.5652
         7         0.0000      0.0000      0.0000
         8         0.0000      0.0000      0.0000
         9         0.0000     -0.8608      0.0000
        10         0.0011      0.0000     -0.7723
 Ground to excited state transition velocity quadrupole moments (Au):
       state          XX          YY          ZZ          XY          XZ          YZ
         1         0.0000      0.0000      0.0000      0.0000      0.0000      0.0000
         2         0.0000      0.0000      0.0000      0.3555      0.0000     -0.0888
         3         0.0000      0.0000      0.0000      0.0000      0.0000      0.0000
         4         0.0000      0.0000      0.0000      0.0525      0.0000     -0.0062
         5         0.0000      0.0000      0.0000     -0.2634      0.0000      0.2828
         6         0.0000      0.0000      0.0000      0.5359      0.0000     -0.2786
         7         0.0000      0.0000      0.0000      0.0000      0.0000      0.0000
         8         0.0000      0.0000      0.0000      0.0000      0.0000      0.0000
         9         0.9013      0.1389     -0.0568      0.0000     -0.4316      0.0000
        10         0.0000      0.0000      0.0000     -0.3751      0.0000      0.1447
 <0|del|b> * <b|rxdel|0> + <0|del|b> * <b|delr+rdel|0>
 Rotatory Strengths (R) in cgs (10**-40 erg-esu-cm/Gauss)
       state          XX          YY          ZZ    R(velocity)    E-M Angle
         1         0.0000      0.0000      0.0000      0.0000       90.00
         2         0.0000      0.0000      0.0000      0.0000       90.00
         3         0.0000      0.0000      0.0000      0.0000       90.00
         4         0.0000      0.0000      0.0000      0.0000       90.00
         5         0.0000      0.0000      0.0000      0.0000       90.00
         6         0.0000      0.0000      0.0000      0.0000       90.00
         7         0.0000      0.0000      0.0000      0.0000       90.00
         8         0.0000      0.0000      0.0000      0.0000       90.00
         9         0.0000      0.0000      0.0000      0.0000       90.00
        10         0.0000      0.0000      0.0000      0.0000       90.00
 1/2[<0|r|b>*<b|rxdel|0> + (<0|rxdel|b>*<b|r|0>)*]
 Rotatory Strengths (R) in cgs (10**-40 erg-esu-cm/Gauss)
       state          XX          YY          ZZ     R(length)
         1         0.0000      0.0000      0.0000      0.0000
         2         0.0000      0.0000      0.0000      0.0000
         3         0.0000      0.0000      0.0000      0.0000
         4         0.0000      0.0000      0.0000      0.0000
         5         0.0000      0.0000      0.0000      0.0000
         6         0.0000      0.0000      0.0000      0.0000
         7         0.0000      0.0000      0.0000      0.0000
         8         0.0000      0.0000      0.0000      0.0000
         9         0.0000      0.0000      0.0000      0.0000
        10         0.0000      0.0000      0.0000      0.0000
  1/2[<0|del|b>*<b|r|0> + (<0|r|b>*<b|del|0>)*] (Au)
       state          X           Y           Z        Dip. S.   Osc.(frdel)
         1        -0.1496      0.0000     -0.4548      0.6044      0.4029
         2         0.0000      0.0000      0.0000      0.0000      0.0000
         3         0.0000     -0.0035      0.0000      0.0035      0.0023
         4         0.0000      0.0000      0.0000      0.0000      0.0000
         5         0.0000      0.0000      0.0000      0.0000      0.0000
         6         0.0000      0.0000      0.0000      0.0000      0.0000
         7         0.0000     -0.0303      0.0000      0.0303      0.0202
         8         0.0000     -0.0289      0.0000      0.0289      0.0193
         9         0.0000      0.0000      0.0000      0.0000      0.0000
        10         0.0000      0.0000      0.0000      0.0000      0.0000

 Excitation energies and oscillator strengths:
 
 Excited State   1:      Singlet-AU     7.0279 eV  176.42 nm  f=0.3816  <S**2>=0.000
      16 -> 17         0.70016
 This state for optimization and/or second-order correction.
 Total Energy, E(TD-HF/TD-KS) =  -156.961960400    
 Copying the excited state density for this state as the 1-particle RhoCI density.
 
 Excited State   2:      Singlet-AG     8.1464 eV  152.20 nm  f=0.0000  <S**2>=0.000
      15 -> 17         0.67237
      16 -> 19         0.14566
      16 -> 20        -0.14767
 
 Excited State   3:      Singlet-AU     8.4279 eV  147.11 nm  f=0.0020  <S**2>=0.000
      16 -> 18         0.69985
 
 Excited State   4:      Singlet-AG     8.4601 eV  146.55 nm  f=0.0000  <S**2>=0.000
      15 -> 17        -0.20011
      16 -> 19         0.59560
      16 -> 20        -0.31889
 
 Excited State   5:      Singlet-AG     8.6534 eV  143.28 nm  f=0.0000  <S**2>=0.000
      14 -> 17         0.58302
      16 -> 19        -0.17096
      16 -> 20        -0.35064
 
 Excited State   6:      Singlet-AG     8.7341 eV  141.95 nm  f=0.0000  <S**2>=0.000
      14 -> 17         0.38723
      16 -> 19         0.30526
      16 -> 20         0.50088
 
 Excited State   7:      Singlet-AU     9.1508 eV  135.49 nm  f=0.0134  <S**2>=0.000
      13 -> 17         0.13437
      16 -> 21         0.68746
 
 Excited State   8:      Singlet-AU     9.5409 eV  129.95 nm  f=0.0157  <S**2>=0.000
      13 -> 17         0.68953
      16 -> 21        -0.13537
 
 Excited State   9:      Singlet-AG    10.0403 eV  123.49 nm  f=0.0000  <S**2>=0.000
      12 -> 17         0.14866
      16 -> 22         0.68967
 
 Excited State  10:      Singlet-AG    10.5183 eV  117.87 nm  f=0.0000  <S**2>=0.000
      10 -> 17        -0.12956
      16 -> 23         0.69181
 SavETr:  write IOETrn=   770 NScale= 10 NData=  16 NLR=1 NState=   10 LETran=     190.
 Leave Link  914 at Sat Jun 05 22:36:23 2021, MaxMem=    33554432 cpu:        46.0
 (Enter C:\G09W\l601.exe)
 Copying SCF densities to generalized density rwf, IOpCl= 0 IROHF=0.

 **********************************************************************

            Population analysis using the SCF density.

 **********************************************************************

 Orbital symmetries:
       Occupied  (AG) (AU) (AG) (AU) (AG) (AU) (AG) (AU) (AU) (AG)
                 (AU) (AG) (AU) (AG) (AG) (AU)
       Virtual   (AG) (AG) (AU) (AU) (AG) (AU) (AU) (AG) (AG) (AU)
                 (AG) (AU) (AG) (AU) (AU) (AU) (AG) (AG) (AU) (AG)
                 (AG) (AU) (AU) (AG) (AG) (AU) (AG) (AU) (AG) (AU)
                 (AU) (AG) (AU) (AG) (AG) (AU) (AG) (AU) (AU) (AG)
                 (AU) (AU) (AG) (AG) (AU) (AG) (AU) (AG) (AG) (AU)
                 (AU) (AG) (AG) (AU) (AU) (AG) (AG) (AU) (AG) (AU)
 The electronic state is 1-AG.
 Alpha  occ. eigenvalues --  -10.17653 -10.17610 -10.17604 -10.17560  -0.78591
 Alpha  occ. eigenvalues --   -0.71891  -0.63715  -0.53816  -0.43427  -0.43410
 Alpha  occ. eigenvalues --   -0.41024  -0.39637  -0.37124  -0.35268  -0.33067
 Alpha  occ. eigenvalues --   -0.23160
 Alpha virt. eigenvalues --    0.02307   0.12056   0.12126   0.13124   0.14361
 Alpha virt. eigenvalues --    0.17487   0.19658   0.21337   0.21723   0.24383
 Alpha virt. eigenvalues --    0.30936   0.36609   0.49521   0.51567   0.54977
 Alpha virt. eigenvalues --    0.58208   0.58366   0.59461   0.66650   0.70154
 Alpha virt. eigenvalues --    0.73235   0.77554   0.79259   0.80339   0.87774
 Alpha virt. eigenvalues --    0.87803   0.88915   0.89687   0.91827   0.92313
 Alpha virt. eigenvalues --    0.95785   0.96463   1.14752   1.20824   1.23472
 Alpha virt. eigenvalues --    1.42706   1.43476   1.43603   1.59083   1.80215
 Alpha virt. eigenvalues --    1.80413   1.89116   1.89933   2.01110   2.13531
 Alpha virt. eigenvalues --    2.14966   2.15927   2.15978   2.17358   2.33805
 Alpha virt. eigenvalues --    2.37177   2.40274   2.53241   2.65028   2.81236
 Alpha virt. eigenvalues --    2.93822   4.11673   4.17470   4.30790   4.46222
     Molecular Orbital Coefficients:
                           1         2         3         4         5
                           O         O         O         O         O
     Eigenvalues --   -10.17653 -10.17610 -10.17604 -10.17560  -0.78591
   1 1   C  1S          0.67981   0.17417  -0.17443   0.68024  -0.13547
   2        2S          0.03332   0.00867  -0.00873   0.03418   0.26089
   3        2PX         0.00011  -0.00017  -0.00008   0.00013   0.01619
   4        2PY         0.00000   0.00000   0.00000   0.00000   0.00000
   5        2PZ        -0.00031   0.00016   0.00012   0.00020   0.05863
   6        3S         -0.00623  -0.00078   0.00431  -0.01459   0.17993
   7        3PX        -0.00134   0.00156   0.00129  -0.00076  -0.00580
   8        3PY         0.00000   0.00000   0.00000   0.00000   0.00000
   9        3PZ         0.00089  -0.00233  -0.00091  -0.00178  -0.00074
  10        4XX        -0.00661  -0.00181   0.00146  -0.00619   0.00036
  11        4YY        -0.00667  -0.00171   0.00156  -0.00643  -0.01406
  12        4ZZ        -0.00642  -0.00179   0.00154  -0.00593   0.00558
  13        4XY         0.00000   0.00000   0.00000   0.00000   0.00000
  14        4XZ         0.00001   0.00008   0.00018  -0.00002  -0.00181
  15        4YZ         0.00000   0.00000   0.00000   0.00000   0.00000
  16 2   C  1S          0.67981  -0.17417  -0.17443  -0.68024  -0.13547
  17        2S          0.03332  -0.00867  -0.00873  -0.03418   0.26089
  18        2PX        -0.00011  -0.00017   0.00008   0.00013  -0.01619
  19        2PY         0.00000   0.00000   0.00000   0.00000   0.00000
  20        2PZ         0.00031   0.00016  -0.00012   0.00020  -0.05863
  21        3S         -0.00623   0.00078   0.00431   0.01459   0.17993
  22        3PX         0.00134   0.00156  -0.00129  -0.00076   0.00580
  23        3PY         0.00000   0.00000   0.00000   0.00000   0.00000
  24        3PZ        -0.00089  -0.00233   0.00091  -0.00178   0.00074
  25        4XX        -0.00661   0.00181   0.00146   0.00619   0.00036
  26        4YY        -0.00667   0.00171   0.00156   0.00643  -0.01406
  27        4ZZ        -0.00642   0.00179   0.00154   0.00593   0.00558
  28        4XY         0.00000   0.00000   0.00000   0.00000   0.00000
  29        4XZ         0.00001  -0.00008   0.00018   0.00002  -0.00181
  30        4YZ         0.00000   0.00000   0.00000   0.00000   0.00000
  31 3   H  1S         -0.00034  -0.00007  -0.00007  -0.00014   0.06721
  32        2S          0.00106   0.00020  -0.00025   0.00155   0.00916
  33 4   H  1S         -0.00034   0.00007  -0.00007   0.00014   0.06721
  34        2S          0.00106  -0.00020  -0.00025  -0.00155   0.00916
  35 5   C  1S          0.17434   0.68014   0.68008  -0.17431  -0.08511
  36        2S          0.00859   0.03433   0.03414  -0.00886   0.16030
  37        2PX         0.00020   0.00004  -0.00008   0.00018  -0.03771
  38        2PY         0.00000   0.00000   0.00000   0.00000   0.00000
  39        2PZ        -0.00005   0.00003   0.00002  -0.00005   0.03010
  40        3S         -0.00024  -0.01199  -0.01159   0.00559   0.13637
  41        3PX        -0.00127   0.00059   0.00064  -0.00116  -0.00335
  42        3PY         0.00000   0.00000   0.00000   0.00000   0.00000
  43        3PZ         0.00062  -0.00052  -0.00022   0.00081   0.01039
  44        4XX        -0.00189  -0.00637  -0.00623   0.00126   0.00295
  45        4YY        -0.00165  -0.00620  -0.00627   0.00157  -0.00190
  46        4ZZ        -0.00170  -0.00627  -0.00626   0.00144   0.00100
  47        4XY         0.00000   0.00000   0.00000   0.00000   0.00000
  48        4XZ         0.00009   0.00009  -0.00002   0.00011  -0.00415
  49        4YZ         0.00000   0.00000   0.00000   0.00000   0.00000
  50 6   H  1S         -0.00014  -0.00001  -0.00003  -0.00012   0.04548
  51        2S          0.00075   0.00195   0.00174  -0.00033   0.00596
  52 7   H  1S         -0.00009  -0.00002  -0.00003  -0.00006   0.04358
  53        2S          0.00045   0.00173   0.00190  -0.00063   0.00953
  54 8   H  1S         -0.00014  -0.00001  -0.00003  -0.00012   0.04548
  55        2S          0.00075   0.00195   0.00174  -0.00033   0.00596
  56 9   C  1S          0.17434  -0.68014   0.68008   0.17431  -0.08511
  57        2S          0.00859  -0.03433   0.03414   0.00886   0.16030
  58        2PX        -0.00020   0.00004   0.00008   0.00018   0.03771
  59        2PY         0.00000   0.00000   0.00000   0.00000   0.00000
  60        2PZ         0.00005   0.00003  -0.00002  -0.00005  -0.03010
  61        3S         -0.00024   0.01199  -0.01159  -0.00559   0.13637
  62        3PX         0.00127   0.00059  -0.00064  -0.00116   0.00335
  63        3PY         0.00000   0.00000   0.00000   0.00000   0.00000
  64        3PZ        -0.00062  -0.00052   0.00022   0.00081  -0.01039
  65        4XX        -0.00189   0.00637  -0.00623  -0.00126   0.00295
  66        4YY        -0.00165   0.00620  -0.00627  -0.00157  -0.00190
  67        4ZZ        -0.00170   0.00627  -0.00626  -0.00144   0.00100
  68        4XY         0.00000   0.00000   0.00000   0.00000   0.00000
  69        4XZ         0.00009  -0.00009  -0.00002  -0.00011  -0.00415
  70        4YZ         0.00000   0.00000   0.00000   0.00000   0.00000
  71 10  H  1S         -0.00009   0.00002  -0.00003   0.00006   0.04358
  72        2S          0.00045  -0.00173   0.00190   0.00063   0.00953
  73 11  H  1S         -0.00014   0.00001  -0.00003   0.00012   0.04548
  74        2S          0.00075  -0.00195   0.00174   0.00033   0.00596
  75 12  H  1S         -0.00014   0.00001  -0.00003   0.00012   0.04548
  76        2S          0.00075  -0.00195   0.00174   0.00033   0.00596
                           6         7         8         9        10
                           O         O         O         O         O
     Eigenvalues --    -0.71891  -0.63715  -0.53816  -0.43427  -0.43410
   1 1   C  1S         -0.05902   0.08460  -0.09737  -0.04275   0.00306
   2        2S          0.11560  -0.16850   0.19912   0.09493  -0.00663
   3        2PX         0.07272   0.06826  -0.13477   0.24510   0.05260
   4        2PY         0.00000   0.00000   0.00000   0.00000   0.00000
   5        2PZ        -0.07852  -0.13818  -0.14366  -0.04132   0.27030
   6        3S          0.07482  -0.14035   0.18883   0.07235  -0.02871
   7        3PX         0.01168   0.02779  -0.04589   0.08033   0.00877
   8        3PY         0.00000   0.00000   0.00000   0.00000   0.00000
   9        3PZ        -0.02870  -0.01894  -0.05120  -0.02671   0.09117
  10        4XX         0.00693   0.00836   0.00645  -0.00011  -0.00534
  11        4YY        -0.00578   0.00772  -0.00836  -0.00222   0.00095
  12        4ZZ        -0.00332  -0.00424  -0.00722  -0.00791  -0.00126
  13        4XY         0.00000   0.00000   0.00000   0.00000   0.00000
  14        4XZ        -0.00328  -0.00893   0.00532   0.00253  -0.00605
  15        4YZ         0.00000   0.00000   0.00000   0.00000   0.00000
  16 2   C  1S          0.05902   0.08460   0.09737   0.04275   0.00306
  17        2S         -0.11560  -0.16850  -0.19912  -0.09493  -0.00663
  18        2PX         0.07272  -0.06826  -0.13477   0.24510  -0.05260
  19        2PY         0.00000   0.00000   0.00000   0.00000   0.00000
  20        2PZ        -0.07852   0.13818  -0.14366  -0.04132  -0.27030
  21        3S         -0.07482  -0.14035  -0.18883  -0.07235  -0.02871
  22        3PX         0.01168  -0.02779  -0.04589   0.08033  -0.00877
  23        3PY         0.00000   0.00000   0.00000   0.00000   0.00000
  24        3PZ        -0.02870   0.01894  -0.05120  -0.02671  -0.09117
  25        4XX        -0.00693   0.00836  -0.00645   0.00011  -0.00534
  26        4YY         0.00578   0.00772   0.00836   0.00222   0.00095
  27        4ZZ         0.00332  -0.00424   0.00722   0.00791  -0.00126
  28        4XY         0.00000   0.00000   0.00000   0.00000   0.00000
  29        4XZ         0.00328  -0.00893  -0.00532  -0.00253  -0.00605
  30        4YZ         0.00000   0.00000   0.00000   0.00000   0.00000
  31 3   H  1S          0.03109  -0.05575   0.17842  -0.06335  -0.11382
  32        2S          0.00473  -0.01005   0.10016  -0.06062  -0.09418
  33 4   H  1S         -0.03109  -0.05575  -0.17842   0.06335  -0.11382
  34        2S         -0.00473  -0.01005  -0.10016   0.06062  -0.09418
  35 5   C  1S         -0.13353  -0.11096   0.03256   0.01013  -0.00589
  36        2S          0.25707   0.21917  -0.06504  -0.01965   0.00863
  37        2PX        -0.01846   0.05868  -0.13195  -0.14120   0.19470
  38        2PY         0.00000   0.00000   0.00000   0.00000   0.00000
  39        2PZ         0.00680  -0.05462   0.00177   0.24391   0.14064
  40        3S          0.23113   0.21395  -0.07234  -0.02167   0.03163
  41        3PX         0.00254   0.02019  -0.05062  -0.05742   0.08757
  42        3PY         0.00000   0.00000   0.00000   0.00000   0.00000
  43        3PZ         0.00126  -0.02682  -0.00372   0.11826   0.06945
  44        4XX         0.00038  -0.00483   0.00800   0.00562  -0.00266
  45        4YY        -0.00029   0.00344  -0.00622  -0.00278   0.01070
  46        4ZZ         0.00007  -0.00106  -0.00070  -0.00639  -0.00656
  47        4XY         0.00000   0.00000   0.00000   0.00000   0.00000
  48        4XZ         0.00011   0.00816  -0.00505  -0.01177  -0.00122
  49        4YZ         0.00000   0.00000   0.00000   0.00000   0.00000
  50 6   H  1S          0.08312   0.09000  -0.06426  -0.02871   0.08581
  51        2S          0.01853   0.03143  -0.03496  -0.02077   0.05980
  52 7   H  1S          0.08602   0.09830  -0.01590  -0.13795  -0.09930
  53        2S          0.02260   0.03174  -0.00700  -0.09916  -0.07942
  54 8   H  1S          0.08312   0.09000  -0.06426  -0.02870   0.08581
  55        2S          0.01853   0.03143  -0.03497  -0.02077   0.05980
  56 9   C  1S          0.13353  -0.11096  -0.03256  -0.01013  -0.00589
  57        2S         -0.25707   0.21917   0.06504   0.01965   0.00863
  58        2PX        -0.01846  -0.05868  -0.13195  -0.14120  -0.19470
  59        2PY         0.00000   0.00000   0.00000   0.00000   0.00000
  60        2PZ         0.00680   0.05462   0.00177   0.24391  -0.14064
  61        3S         -0.23113   0.21395   0.07234   0.02167   0.03163
  62        3PX         0.00254  -0.02019  -0.05062  -0.05742  -0.08757
  63        3PY         0.00000   0.00000   0.00000   0.00000   0.00000
  64        3PZ         0.00126   0.02682  -0.00372   0.11826  -0.06945
  65        4XX        -0.00038  -0.00483  -0.00800  -0.00562  -0.00266
  66        4YY         0.00029   0.00344   0.00622   0.00278   0.01070
  67        4ZZ        -0.00007  -0.00106   0.00070   0.00639  -0.00656
  68        4XY         0.00000   0.00000   0.00000   0.00000   0.00000
  69        4XZ        -0.00011   0.00816   0.00505   0.01177  -0.00122
  70        4YZ         0.00000   0.00000   0.00000   0.00000   0.00000
  71 10  H  1S         -0.08602   0.09830   0.01590   0.13795  -0.09930
  72        2S         -0.02260   0.03174   0.00700   0.09916  -0.07942
  73 11  H  1S         -0.08312   0.09000   0.06426   0.02871   0.08581
  74        2S         -0.01853   0.03143   0.03496   0.02077   0.05980
  75 12  H  1S         -0.08312   0.09000   0.06426   0.02870   0.08581
  76        2S         -0.01853   0.03143   0.03497   0.02077   0.05980
                          11        12        13        14        15
                           O         O         O         O         O
     Eigenvalues --    -0.41024  -0.39637  -0.37124  -0.35268  -0.33067
   1 1   C  1S          0.00000   0.00000  -0.01345  -0.01109  -0.01287
   2        2S          0.00000   0.00000   0.02361   0.02117   0.03422
   3        2PX         0.00000   0.00000  -0.15276  -0.09171   0.27411
   4        2PY         0.13911   0.05846   0.00000   0.00000   0.00000
   5        2PZ         0.00000   0.00000  -0.00138   0.28557   0.07199
   6        3S          0.00000   0.00000   0.07479   0.03442   0.02098
   7        3PX         0.00000   0.00000  -0.06080  -0.00591   0.07439
   8        3PY         0.07203   0.02363   0.00000   0.00000   0.00000
   9        3PZ         0.00000   0.00000   0.01245   0.08530   0.03367
  10        4XX         0.00000   0.00000   0.00902  -0.01476  -0.00917
  11        4YY         0.00000   0.00000  -0.00083  -0.00109  -0.00027
  12        4ZZ         0.00000   0.00000  -0.00881   0.00967   0.00179
  13        4XY         0.00530   0.00783   0.00000   0.00000   0.00000
  14        4XZ         0.00000   0.00000   0.00559   0.00185  -0.02530
  15        4YZ         0.00162  -0.00565   0.00000   0.00000   0.00000
  16 2   C  1S          0.00000   0.00000   0.01345  -0.01109  -0.01287
  17        2S          0.00000   0.00000  -0.02361   0.02117   0.03422
  18        2PX         0.00000   0.00000  -0.15276   0.09171  -0.27411
  19        2PY         0.13911  -0.05846   0.00000   0.00000   0.00000
  20        2PZ         0.00000   0.00000  -0.00138  -0.28557  -0.07199
  21        3S          0.00000   0.00000  -0.07479   0.03442   0.02098
  22        3PX         0.00000   0.00000  -0.06080   0.00591  -0.07439
  23        3PY         0.07203  -0.02363   0.00000   0.00000   0.00000
  24        3PZ         0.00000   0.00000   0.01245  -0.08530  -0.03367
  25        4XX         0.00000   0.00000  -0.00902  -0.01476  -0.00917
  26        4YY         0.00000   0.00000   0.00083  -0.00109  -0.00027
  27        4ZZ         0.00000   0.00000   0.00881   0.00967   0.00179
  28        4XY        -0.00530   0.00783   0.00000   0.00000   0.00000
  29        4XZ         0.00000   0.00000  -0.00559   0.00185  -0.02530
  30        4YZ        -0.00162  -0.00565   0.00000   0.00000   0.00000
  31 3   H  1S          0.00000   0.00000   0.09815  -0.04179  -0.19827
  32        2S          0.00000   0.00000   0.07381  -0.04296  -0.22934
  33 4   H  1S          0.00000   0.00000  -0.09815  -0.04179  -0.19827
  34        2S          0.00000   0.00000  -0.07381  -0.04296  -0.22934
  35 5   C  1S          0.00000   0.00000   0.00288   0.01194  -0.02206
  36        2S          0.00000   0.00000  -0.00662  -0.02709   0.04678
  37        2PX         0.00000   0.00000   0.23191   0.06278  -0.23742
  38        2PY         0.29630   0.31614   0.00000   0.00000   0.00000
  39        2PZ         0.00000   0.00000   0.18849  -0.28294   0.04013
  40        3S          0.00000   0.00000  -0.00963  -0.06393   0.11215
  41        3PX         0.00000   0.00000   0.11147   0.04827  -0.13009
  42        3PY         0.13365   0.15289   0.00000   0.00000   0.00000
  43        3PZ         0.00000   0.00000   0.08068  -0.13523   0.01711
  44        4XX         0.00000   0.00000   0.00631  -0.01049  -0.00296
  45        4YY         0.00000   0.00000   0.01397  -0.00373  -0.00876
  46        4ZZ         0.00000   0.00000  -0.01805   0.01872   0.00682
  47        4XY         0.01266   0.01584   0.00000   0.00000   0.00000
  48        4XZ         0.00000   0.00000   0.00234   0.00402  -0.00872
  49        4YZ         0.00728   0.00652   0.00000   0.00000   0.00000
  50 6   H  1S         -0.14967  -0.16431   0.11021  -0.03027  -0.07001
  51        2S         -0.12402  -0.13593   0.09741  -0.03039  -0.08250
  52 7   H  1S          0.00000   0.00000  -0.16057   0.17723   0.02966
  53        2S          0.00000   0.00000  -0.14785   0.17425   0.01281
  54 8   H  1S          0.14967   0.16431   0.11021  -0.03027  -0.07001
  55        2S          0.12401   0.13593   0.09741  -0.03039  -0.08250
  56 9   C  1S          0.00000   0.00000  -0.00288   0.01194  -0.02206
  57        2S          0.00000   0.00000   0.00662  -0.02709   0.04678
  58        2PX         0.00000   0.00000   0.23191  -0.06278   0.23742
  59        2PY         0.29630  -0.31614   0.00000   0.00000   0.00000
  60        2PZ         0.00000   0.00000   0.18849   0.28294  -0.04013
  61        3S          0.00000   0.00000   0.00963  -0.06393   0.11215
  62        3PX         0.00000   0.00000   0.11147  -0.04827   0.13009
  63        3PY         0.13365  -0.15289   0.00000   0.00000   0.00000
  64        3PZ         0.00000   0.00000   0.08068   0.13523  -0.01711
  65        4XX         0.00000   0.00000  -0.00631  -0.01049  -0.00296
  66        4YY         0.00000   0.00000  -0.01397  -0.00373  -0.00876
  67        4ZZ         0.00000   0.00000   0.01805   0.01872   0.00682
  68        4XY        -0.01266   0.01584   0.00000   0.00000   0.00000
  69        4XZ         0.00000   0.00000  -0.00234   0.00402  -0.00872
  70        4YZ        -0.00728   0.00652   0.00000   0.00000   0.00000
  71 10  H  1S          0.00000   0.00000   0.16057   0.17723   0.02966
  72        2S          0.00000   0.00000   0.14785   0.17425   0.01281
  73 11  H  1S          0.14967  -0.16431  -0.11021  -0.03027  -0.07001
  74        2S          0.12402  -0.13593  -0.09741  -0.03039  -0.08250
  75 12  H  1S         -0.14967   0.16431  -0.11021  -0.03027  -0.07001
  76        2S         -0.12401   0.13593  -0.09741  -0.03039  -0.08250
                          16        17        18        19        20
                           O         V         V         V         V
     Eigenvalues --    -0.23160   0.02307   0.12056   0.12126   0.13124
   1 1   C  1S          0.00000   0.00000  -0.04593  -0.00645   0.04165
   2        2S          0.00000   0.00000   0.09551   0.00191  -0.05259
   3        2PX         0.00000   0.00000  -0.09886  -0.09309   0.16390
   4        2PY         0.38264   0.39590   0.00000   0.00000   0.00000
   5        2PZ         0.00000   0.00000  -0.09137  -0.01991   0.08795
   6        3S          0.00000   0.00000   0.64917   0.41803  -0.60572
   7        3PX         0.00000   0.00000  -0.36249  -0.30939   0.34345
   8        3PY         0.28190   0.54330   0.00000   0.00000   0.00000
   9        3PZ         0.00000   0.00000  -0.24465   0.39747   0.27464
  10        4XX         0.00000   0.00000  -0.00487   0.00163   0.00712
  11        4YY         0.00000   0.00000  -0.00297  -0.00456   0.00158
  12        4ZZ         0.00000   0.00000   0.00639   0.00530   0.00065
  13        4XY        -0.00437  -0.00271   0.00000   0.00000   0.00000
  14        4XZ         0.00000   0.00000   0.00446  -0.01897   0.01537
  15        4YZ         0.01718  -0.02404   0.00000   0.00000   0.00000
  16 2   C  1S          0.00000   0.00000  -0.04593   0.00645  -0.04165
  17        2S          0.00000   0.00000   0.09551  -0.00191   0.05259
  18        2PX         0.00000   0.00000   0.09886  -0.09309   0.16390
  19        2PY         0.38264  -0.39590   0.00000   0.00000   0.00000
  20        2PZ         0.00000   0.00000   0.09137  -0.01991   0.08795
  21        3S          0.00000   0.00000   0.64917  -0.41803   0.60572
  22        3PX         0.00000   0.00000   0.36249  -0.30939   0.34345
  23        3PY         0.28190  -0.54330   0.00000   0.00000   0.00000
  24        3PZ         0.00000   0.00000   0.24465   0.39747   0.27464
  25        4XX         0.00000   0.00000  -0.00487  -0.00163  -0.00712
  26        4YY         0.00000   0.00000  -0.00297   0.00456  -0.00158
  27        4ZZ         0.00000   0.00000   0.00639  -0.00530  -0.00065
  28        4XY         0.00437  -0.00271   0.00000   0.00000   0.00000
  29        4XZ         0.00000   0.00000   0.00446   0.01897  -0.01537
  30        4YZ        -0.01718  -0.02404   0.00000   0.00000   0.00000
  31 3   H  1S          0.00000   0.00000   0.01311  -0.04574   0.07755
  32        2S          0.00000   0.00000  -0.75387  -0.34421   1.04740
  33 4   H  1S          0.00000   0.00000   0.01311   0.04574  -0.07755
  34        2S          0.00000   0.00000  -0.75387   0.34421  -1.04740
  35 5   C  1S          0.00000   0.00000  -0.06136  -0.10632  -0.04021
  36        2S          0.00000   0.00000   0.06095   0.13030   0.04223
  37        2PX         0.00000   0.00000   0.10101   0.00408   0.15331
  38        2PY        -0.11653   0.03288   0.00000   0.00000   0.00000
  39        2PZ         0.00000   0.00000  -0.15075  -0.08748   0.10176
  40        3S          0.00000   0.00000   1.13665   1.71461   0.69041
  41        3PX         0.00000   0.00000   0.28544   0.00041   0.34947
  42        3PY        -0.06501   0.17112   0.00000   0.00000   0.00000
  43        3PZ         0.00000   0.00000  -0.42167  -0.29726   0.19699
  44        4XX         0.00000   0.00000   0.00388  -0.00405  -0.00663
  45        4YY         0.00000   0.00000  -0.00365  -0.00569  -0.00873
  46        4ZZ         0.00000   0.00000  -0.01617  -0.01503   0.00513
  47        4XY        -0.02040  -0.02674   0.00000   0.00000   0.00000
  48        4XZ         0.00000   0.00000  -0.00669   0.00016  -0.00258
  49        4YZ         0.00504   0.00464   0.00000   0.00000   0.00000
  50 6   H  1S          0.09384   0.08065   0.00957  -0.00547  -0.02195
  51        2S          0.10657   0.33372  -0.43433  -0.55733  -0.63537
  52 7   H  1S          0.00000   0.00000  -0.05927  -0.03782   0.02690
  53        2S          0.00000   0.00000  -0.94882  -1.00888   0.22181
  54 8   H  1S         -0.09384  -0.08065   0.00957  -0.00547  -0.02195
  55        2S         -0.10657  -0.33372  -0.43433  -0.55732  -0.63538
  56 9   C  1S          0.00000   0.00000  -0.06136   0.10632   0.04021
  57        2S          0.00000   0.00000   0.06095  -0.13030  -0.04223
  58        2PX         0.00000   0.00000  -0.10101   0.00408   0.15331
  59        2PY        -0.11653  -0.03288   0.00000   0.00000   0.00000
  60        2PZ         0.00000   0.00000   0.15075  -0.08748   0.10176
  61        3S          0.00000   0.00000   1.13665  -1.71461  -0.69041
  62        3PX         0.00000   0.00000  -0.28544   0.00041   0.34947
  63        3PY        -0.06501  -0.17112   0.00000   0.00000   0.00000
  64        3PZ         0.00000   0.00000   0.42167  -0.29726   0.19699
  65        4XX         0.00000   0.00000   0.00388   0.00405   0.00663
  66        4YY         0.00000   0.00000  -0.00365   0.00569   0.00873
  67        4ZZ         0.00000   0.00000  -0.01617   0.01503  -0.00513
  68        4XY         0.02040  -0.02674   0.00000   0.00000   0.00000
  69        4XZ         0.00000   0.00000  -0.00669  -0.00016   0.00258
  70        4YZ        -0.00504   0.00464   0.00000   0.00000   0.00000
  71 10  H  1S          0.00000   0.00000  -0.05927   0.03782  -0.02690
  72        2S          0.00000   0.00000  -0.94882   1.00888  -0.22181
  73 11  H  1S         -0.09384   0.08065   0.00957   0.00547   0.02195
  74        2S         -0.10657   0.33372  -0.43433   0.55733   0.63537
  75 12  H  1S          0.09384  -0.08065   0.00957   0.00547   0.02195
  76        2S          0.10657  -0.33372  -0.43433   0.55732   0.63538
                          21        22        23        24        25
                           V         V         V         V         V
     Eigenvalues --     0.14361   0.17487   0.19658   0.21337   0.21723
   1 1   C  1S          0.04358   0.00000   0.06650   0.00000  -0.05473
   2        2S         -0.01781   0.00000  -0.13044   0.00000   0.07066
   3        2PX         0.02323   0.00000   0.11970   0.00000  -0.02728
   4        2PY         0.00000  -0.00288   0.00000   0.19194   0.00001
   5        2PZ         0.08822   0.00000   0.03346   0.00001  -0.17534
   6        3S         -0.73225   0.00001  -0.70280  -0.00004   1.23838
   7        3PX        -0.07672   0.00000   0.34511   0.00001  -0.12036
   8        3PY         0.00000  -0.17083   0.00000   0.46199   0.00002
   9        3PZ         0.22506   0.00001   0.45584   0.00002  -0.61601
  10        4XX         0.02481   0.00000  -0.01179   0.00000   0.00560
  11        4YY        -0.00366   0.00000   0.00274   0.00000  -0.00449
  12        4ZZ         0.00031   0.00000   0.01786   0.00000  -0.00286
  13        4XY         0.00000   0.00704   0.00000  -0.00875   0.00000
  14        4XZ         0.00057   0.00000  -0.00524   0.00000   0.00611
  15        4YZ         0.00000  -0.01321   0.00000  -0.00506   0.00000
  16 2   C  1S          0.04358   0.00000  -0.06650   0.00000  -0.05473
  17        2S         -0.01781   0.00000   0.13044   0.00000   0.07066
  18        2PX        -0.02323   0.00000   0.11970   0.00000   0.02728
  19        2PY         0.00000  -0.00288   0.00000  -0.19194  -0.00001
  20        2PZ        -0.08822   0.00000   0.03346  -0.00001   0.17534
  21        3S         -0.73225  -0.00001   0.70280  -0.00004   1.23838
  22        3PX         0.07672   0.00000   0.34511  -0.00001   0.12036
  23        3PY         0.00000  -0.17083   0.00000  -0.46199  -0.00002
  24        3PZ        -0.22506   0.00001   0.45584  -0.00002   0.61601
  25        4XX         0.02481   0.00000   0.01179   0.00000   0.00560
  26        4YY        -0.00366   0.00000  -0.00274   0.00000  -0.00449
  27        4ZZ         0.00031   0.00000  -0.01786   0.00000  -0.00286
  28        4XY         0.00000  -0.00704   0.00000  -0.00875   0.00000
  29        4XZ         0.00057   0.00000   0.00524   0.00000   0.00611
  30        4YZ         0.00000   0.01321   0.00000  -0.00506   0.00000
  31 3   H  1S          0.06599   0.00000   0.01387   0.00000  -0.01350
  32        2S          0.50016   0.00000   1.00845   0.00004  -0.94973
  33 4   H  1S          0.06599   0.00000  -0.01387   0.00000  -0.01350
  34        2S          0.50016   0.00000  -1.00845   0.00004  -0.94973
  35 5   C  1S         -0.08069   0.00000  -0.00579   0.00000   0.04723
  36        2S          0.08769   0.00000   0.00864   0.00000  -0.04072
  37        2PX         0.10731   0.00000  -0.14562  -0.00001   0.15426
  38        2PY         0.00000   0.29855   0.00000  -0.32103  -0.00001
  39        2PZ         0.10977   0.00000  -0.14791  -0.00001   0.20684
  40        3S          1.36612   0.00000   0.05577   0.00003  -0.86476
  41        3PX         0.28912   0.00000  -0.65168  -0.00003   0.77426
  42        3PY         0.00000   0.97390   0.00000  -0.98109  -0.00004
  43        3PZ         0.46951   0.00000  -0.67017  -0.00002   0.48134
  44        4XX        -0.01329   0.00000  -0.00291   0.00000   0.01649
  45        4YY        -0.01457   0.00000   0.01060   0.00000  -0.00268
  46        4ZZ         0.00778   0.00000  -0.01083   0.00000  -0.00438
  47        4XY         0.00000  -0.00821   0.00000  -0.00545   0.00000
  48        4XZ         0.00371   0.00000   0.00234   0.00000  -0.00505
  49        4YZ         0.00000  -0.00790   0.00000   0.01058   0.00000
  50 6   H  1S         -0.04773   0.05786   0.04878  -0.03066  -0.00894
  51        2S         -0.89036   1.07465   0.57400  -1.05799  -0.30955
  52 7   H  1S          0.05904   0.00000  -0.07475   0.00000   0.00743
  53        2S          0.21200  -0.00001  -1.00642  -0.00004   1.17735
  54 8   H  1S         -0.04773  -0.05786   0.04878   0.03066  -0.00893
  55        2S         -0.89036  -1.07464   0.57401   1.05801  -0.30947
  56 9   C  1S         -0.08069   0.00000   0.00579   0.00000   0.04723
  57        2S          0.08769   0.00000  -0.00864   0.00000  -0.04072
  58        2PX        -0.10731   0.00000  -0.14562   0.00001  -0.15426
  59        2PY         0.00000   0.29855   0.00000   0.32103   0.00001
  60        2PZ        -0.10977   0.00000  -0.14791   0.00001  -0.20684
  61        3S          1.36612   0.00000  -0.05577   0.00003  -0.86476
  62        3PX        -0.28912   0.00000  -0.65168   0.00003  -0.77426
  63        3PY         0.00000   0.97390   0.00000   0.98109   0.00004
  64        3PZ        -0.46951   0.00000  -0.67017   0.00002  -0.48134
  65        4XX        -0.01329   0.00000   0.00291   0.00000   0.01649
  66        4YY        -0.01457   0.00000  -0.01060   0.00000  -0.00268
  67        4ZZ         0.00778   0.00000   0.01083   0.00000  -0.00438
  68        4XY         0.00000   0.00821   0.00000  -0.00545   0.00000
  69        4XZ         0.00371   0.00000  -0.00234   0.00000  -0.00505
  70        4YZ         0.00000   0.00790   0.00000   0.01058   0.00000
  71 10  H  1S          0.05904   0.00000   0.07475   0.00000   0.00743
  72        2S          0.21200   0.00001   1.00642  -0.00004   1.17735
  73 11  H  1S         -0.04773  -0.05786  -0.04878  -0.03066  -0.00894
  74        2S         -0.89036  -1.07465  -0.57400  -1.05799  -0.30955
  75 12  H  1S         -0.04773   0.05786  -0.04878   0.03066  -0.00893
  76        2S         -0.89036   1.07464  -0.57401   1.05801  -0.30947
                          26        27        28        29        30
                           V         V         V         V         V
     Eigenvalues --     0.24383   0.30936   0.36609   0.49521   0.51567
   1 1   C  1S         -0.09067  -0.03206  -0.07798  -0.01322   0.04182
   2        2S          0.11896   0.04644  -0.00392  -0.11362  -0.11459
   3        2PX         0.24839   0.30364   0.04540   0.16993   0.14208
   4        2PY         0.00000   0.00000   0.00000   0.00000   0.00000
   5        2PZ        -0.07912  -0.00605   0.19581  -0.41327  -0.21952
   6        3S          1.68097   0.89563   3.75833  -0.07283  -0.00442
   7        3PX         0.67438   2.30948  -0.12657  -0.58310   0.01402
   8        3PY         0.00000   0.00000   0.00001   0.00000   0.00000
   9        3PZ        -0.09959  -0.37400   3.41803   0.61299  -0.58223
  10        4XX        -0.00449  -0.00674   0.02135   0.02811   0.00757
  11        4YY        -0.00294   0.00039  -0.00908   0.00454  -0.02532
  12        4ZZ         0.00108   0.00822  -0.01171  -0.05251   0.05838
  13        4XY         0.00000   0.00000   0.00000   0.00000   0.00000
  14        4XZ         0.02325  -0.01957  -0.02564  -0.00675  -0.08475
  15        4YZ         0.00000   0.00000   0.00000   0.00000   0.00000
  16 2   C  1S          0.09067  -0.03206   0.07798  -0.01322  -0.04182
  17        2S         -0.11896   0.04644   0.00392  -0.11362   0.11459
  18        2PX         0.24839  -0.30364   0.04540  -0.16993   0.14208
  19        2PY         0.00000   0.00000   0.00000   0.00000   0.00000
  20        2PZ        -0.07912   0.00605   0.19581   0.41327  -0.21952
  21        3S         -1.68097   0.89563  -3.75833  -0.07283   0.00442
  22        3PX         0.67438  -2.30948  -0.12657   0.58310   0.01402
  23        3PY         0.00000   0.00000   0.00001   0.00000   0.00000
  24        3PZ        -0.09959   0.37400   3.41803  -0.61299  -0.58223
  25        4XX         0.00449  -0.00674  -0.02135   0.02811  -0.00757
  26        4YY         0.00294   0.00039   0.00908   0.00454   0.02532
  27        4ZZ        -0.00108   0.00822   0.01171  -0.05251  -0.05838
  28        4XY         0.00000   0.00000   0.00000   0.00000   0.00000
  29        4XZ        -0.02325  -0.01957   0.02564  -0.00675   0.08475
  30        4YZ         0.00000   0.00000   0.00000   0.00000   0.00000
  31 3   H  1S          0.01726  -0.03058  -0.02131   0.01850  -0.21436
  32        2S          0.00119   1.39244   0.52037  -0.19560  -0.05041
  33 4   H  1S         -0.01726  -0.03058   0.02131   0.01850   0.21436
  34        2S         -0.00119   1.39244  -0.52037  -0.19560   0.05041
  35 5   C  1S          0.05495   0.03792   0.00750   0.01133  -0.00025
  36        2S         -0.07393   0.05519   0.03262  -0.08291   0.12820
  37        2PX         0.15646   0.06379  -0.10227  -0.19006  -0.26124
  38        2PY         0.00000   0.00000   0.00000   0.00000   0.00000
  39        2PZ        -0.20909  -0.02525   0.18266  -0.22601   0.41966
  40        3S         -0.73406  -1.53924   0.10824   0.53427  -0.30532
  41        3PX         0.88553   1.23159  -0.63633   0.29757   0.68990
  42        3PY         0.00000   0.00000   0.00000   0.00000   0.00000
  43        3PZ        -0.89733  -1.01322  -0.56346   0.29020  -0.64791
  44        4XX         0.01486   0.02063  -0.01735   0.00321   0.05835
  45        4YY        -0.01322  -0.00287   0.01544  -0.05513   0.01439
  46        4ZZ         0.00923  -0.00793   0.00795   0.05987  -0.05277
  47        4XY         0.00000   0.00000   0.00000   0.00000   0.00000
  48        4XZ        -0.02890  -0.01698  -0.02468  -0.03742  -0.01291
  49        4YZ         0.00000   0.00000   0.00000   0.00000   0.00000
  50 6   H  1S         -0.04789  -0.03668   0.01288  -0.17901   0.02136
  51        2S         -0.03935  -0.11076   0.35348  -0.01543  -0.13280
  52 7   H  1S         -0.02805  -0.08921   0.01243   0.21545  -0.27272
  53        2S         -0.51281  -0.27334  -0.08319  -0.08529   0.08948
  54 8   H  1S         -0.04789  -0.03668   0.01288  -0.17901   0.02136
  55        2S         -0.03935  -0.11076   0.35349  -0.01543  -0.13280
  56 9   C  1S         -0.05495   0.03792  -0.00750   0.01133   0.00025
  57        2S          0.07393   0.05519  -0.03262  -0.08291  -0.12820
  58        2PX         0.15646  -0.06379  -0.10227   0.19006  -0.26124
  59        2PY         0.00000   0.00000   0.00000   0.00000   0.00000
  60        2PZ        -0.20909   0.02525   0.18266   0.22601   0.41966
  61        3S          0.73406  -1.53924  -0.10824   0.53427   0.30532
  62        3PX         0.88553  -1.23159  -0.63633  -0.29757   0.68990
  63        3PY         0.00000   0.00000   0.00000   0.00000   0.00000
  64        3PZ        -0.89733   1.01322  -0.56346  -0.29020  -0.64791
  65        4XX        -0.01486   0.02063   0.01735   0.00321  -0.05835
  66        4YY         0.01322  -0.00287  -0.01544  -0.05513  -0.01439
  67        4ZZ        -0.00923  -0.00793  -0.00795   0.05987   0.05277
  68        4XY         0.00000   0.00000   0.00000   0.00000   0.00000
  69        4XZ         0.02890  -0.01698   0.02468  -0.03742   0.01291
  70        4YZ         0.00000   0.00000   0.00000   0.00000   0.00000
  71 10  H  1S          0.02805  -0.08921  -0.01243   0.21545   0.27272
  72        2S          0.51281  -0.27334   0.08319  -0.08529  -0.08948
  73 11  H  1S          0.04789  -0.03668  -0.01288  -0.17901  -0.02136
  74        2S          0.03935  -0.11076  -0.35348  -0.01543   0.13280
  75 12  H  1S          0.04789  -0.03668  -0.01288  -0.17901  -0.02136
  76        2S          0.03935  -0.11076  -0.35349  -0.01543   0.13280
                          31        32        33        34        35
                           V         V         V         V         V
     Eigenvalues --     0.54977   0.58208   0.58366   0.59461   0.66650
   1 1   C  1S          0.00000   0.05206   0.03950   0.00000   0.00000
   2        2S          0.00000   0.00344   0.32057   0.00000   0.00000
   3        2PX         0.00000  -0.07862  -0.17382   0.00000   0.00000
   4        2PY         0.59271   0.00000   0.00000  -0.31083   0.44167
   5        2PZ         0.00000  -0.02305   0.17648   0.00000   0.00000
   6        3S          0.00000  -0.58766  -0.13459   0.00000   0.00000
   7        3PX         0.00000   0.17898   0.15038   0.00001   0.00000
   8        3PY        -0.40394   0.00000   0.00000  -0.03724  -0.67895
   9        3PZ         0.00001  -0.59671  -0.20651   0.00000   0.00000
  10        4XX         0.00000   0.07374   0.10792   0.00000   0.00000
  11        4YY         0.00000  -0.03620  -0.05304   0.00000   0.00000
  12        4ZZ         0.00000   0.03219   0.06005   0.00000   0.00000
  13        4XY         0.00464   0.00000   0.00000   0.02172   0.00216
  14        4XZ         0.00000  -0.01901  -0.02255   0.00000   0.00000
  15        4YZ         0.05010   0.00000   0.00000   0.00771   0.01023
  16 2   C  1S          0.00000  -0.05206   0.03950   0.00000   0.00000
  17        2S          0.00000  -0.00344   0.32057   0.00000   0.00000
  18        2PX         0.00000  -0.07862   0.17382   0.00000   0.00000
  19        2PY         0.59271   0.00000   0.00000   0.31083   0.44167
  20        2PZ         0.00000  -0.02305  -0.17648   0.00000   0.00000
  21        3S          0.00000   0.58766  -0.13459   0.00000   0.00000
  22        3PX         0.00000   0.17898  -0.15038  -0.00001   0.00000
  23        3PY        -0.40394   0.00000   0.00000   0.03724  -0.67895
  24        3PZ         0.00001  -0.59671   0.20651   0.00000   0.00000
  25        4XX         0.00000  -0.07374   0.10792   0.00000   0.00000
  26        4YY         0.00000   0.03620  -0.05304   0.00000   0.00000
  27        4ZZ         0.00000  -0.03219   0.06005   0.00000   0.00000
  28        4XY        -0.00464   0.00000   0.00000   0.02172  -0.00216
  29        4XZ         0.00000   0.01901  -0.02255   0.00000   0.00000
  30        4YZ        -0.05010   0.00000   0.00000   0.00771  -0.01023
  31 3   H  1S          0.00000   0.26599   0.24745   0.00000   0.00000
  32        2S          0.00000   0.00853  -0.04429   0.00000   0.00000
  33 4   H  1S          0.00000  -0.26599   0.24745   0.00000   0.00000
  34        2S          0.00000  -0.00853  -0.04429   0.00000   0.00000
  35 5   C  1S          0.00000  -0.01305  -0.01870   0.00000   0.00000
  36        2S          0.00000   0.16408   0.18471   0.00000   0.00000
  37        2PX         0.00000  -0.58340  -0.61726   0.00000   0.00000
[...]
  56 9   C  1S          0.00000   0.00000   0.00000   0.00000   0.00000
  57        2S          0.00000   0.00000   0.00000   0.00000   0.00000
  58        2PX         0.00000   0.00000   0.00000   0.00000   0.00000
  59        2PY         0.00000   0.00000   0.00000   0.00000   0.00000
  60        2PZ         0.00000   0.00000   0.00000   0.00000   0.00000
  61        3S          0.00000   0.00000   0.00000   0.00000   0.00000
  62        3PX        -0.00001   0.00000   0.00000   0.00000   0.00000
  63        3PY         0.00000   0.00000   0.00000   0.00000   0.00000
  64        3PZ         0.00000   0.00000   0.00000   0.00000   0.00000
  65        4XX         0.00000   0.00000   0.00000   0.00000   0.00000
  66        4YY         0.00000   0.00000   0.00000   0.00000   0.00000
  67        4ZZ         0.00000   0.00000   0.00000   0.00000   0.00000
  68        4XY         0.00000   0.00000   0.00000   0.00000   0.00000
  69        4XZ         0.00000   0.00000   0.00000   0.00000   0.00000
  70        4YZ         0.00000   0.00000   0.00000   0.00000   0.00000
  71 10  H  1S          0.00000   0.00000   0.00000   0.00000   0.00000
  72        2S          0.00000   0.00000   0.00000   0.00000   0.00000
  73 11  H  1S          0.00000   0.00000   0.00000   0.00000   0.00000
  74        2S          0.00000   0.00000   0.00000   0.00000   0.00000
  75 12  H  1S          0.00000   0.00000   0.00000   0.00000   0.00000
  76        2S          0.00000   0.00000   0.00000   0.00000   0.00000
                          51        52        53        54        55
  51        2S          0.13807
  52 7   H  1S         -0.00643   0.21236
  53        2S         -0.01770   0.10817   0.14039
  54 8   H  1S         -0.00637  -0.00042  -0.00636   0.21113
  55        2S         -0.01743  -0.00643  -0.01770   0.10657   0.13807
  56 9   C  1S          0.00000   0.00000   0.00000   0.00000   0.00000
  57        2S          0.00000   0.00000   0.00000   0.00000   0.00000
  58        2PX         0.00000   0.00000   0.00000   0.00000   0.00000
  59        2PY         0.00000   0.00000   0.00000   0.00000   0.00000
  60        2PZ         0.00000   0.00000   0.00000   0.00000   0.00000
  61        3S         -0.00003   0.00000  -0.00004   0.00000  -0.00003
  62        3PX        -0.00002   0.00000  -0.00006   0.00000  -0.00002
  63        3PY         0.00001   0.00000   0.00000   0.00000   0.00001
  64        3PZ         0.00001   0.00000  -0.00006   0.00000   0.00001
  65        4XX         0.00000   0.00000   0.00000   0.00000   0.00000
  66        4YY         0.00000   0.00000   0.00000   0.00000   0.00000
  67        4ZZ         0.00000   0.00000   0.00000   0.00000   0.00000
  68        4XY         0.00000   0.00000   0.00000   0.00000   0.00000
  69        4XZ         0.00000   0.00000   0.00000   0.00000   0.00000
  70        4YZ         0.00000   0.00000   0.00000   0.00000   0.00000
  71 10  H  1S          0.00000   0.00000   0.00000   0.00000   0.00000
  72        2S          0.00000   0.00000   0.00000   0.00000   0.00000
  73 11  H  1S          0.00000   0.00000   0.00000   0.00000   0.00000
  74        2S         -0.00001   0.00000   0.00000   0.00000   0.00004
  75 12  H  1S          0.00000   0.00000   0.00000   0.00000   0.00000
  76        2S          0.00004   0.00000   0.00000   0.00000  -0.00001
                          56        57        58        59        60
  56 9   C  1S          2.05020
  57        2S         -0.01157   0.29994
  58        2PX         0.00000   0.00000   0.38911
  59        2PY         0.00000   0.00000   0.00000   0.40264
  60        2PZ         0.00000   0.00000   0.00000   0.00000   0.40081
  61        3S         -0.03291   0.22704   0.00000   0.00000   0.00000
  62        3PX         0.00000   0.00000   0.10582   0.00000   0.00000
  63        3PY         0.00000   0.00000   0.00000   0.10884   0.00000
  64        3PZ         0.00000   0.00000   0.00000   0.00000   0.10774
  65        4XX        -0.00136  -0.00213   0.00000   0.00000   0.00000
  66        4YY        -0.00148   0.00010   0.00000   0.00000   0.00000
  67        4ZZ        -0.00144  -0.00066   0.00000   0.00000   0.00000
  68        4XY         0.00000   0.00000   0.00000   0.00000   0.00000
  69        4XZ         0.00000   0.00000   0.00000   0.00000   0.00000
  70        4YZ         0.00000   0.00000   0.00000   0.00000   0.00000
  71 10  H  1S         -0.00170   0.02771   0.00389   0.00000   0.09382
  72        2S         -0.00075   0.01233   0.00257   0.00000   0.05914
  73 11  H  1S         -0.00167   0.02726   0.02928   0.06289   0.00406
  74        2S         -0.00068   0.01159   0.01810   0.03936   0.00265
  75 12  H  1S         -0.00167   0.02726   0.02928   0.06289   0.00406
  76        2S         -0.00068   0.01159   0.01810   0.03936   0.00265
                          61        62        63        64        65
  61        3S          0.28313
  62        3PX         0.00000   0.09127
  63        3PY         0.00000   0.00000   0.09093
  64        3PZ         0.00000   0.00000   0.00000   0.08949
  65        4XX        -0.00113   0.00000   0.00000   0.00000   0.00076
  66        4YY         0.00068   0.00000   0.00000   0.00000   0.00008
  67        4ZZ        -0.00024   0.00000   0.00000   0.00000  -0.00017
  68        4XY         0.00000   0.00000   0.00000   0.00000   0.00000
  69        4XZ         0.00000   0.00000   0.00000   0.00000   0.00000
  70        4YZ         0.00000   0.00000   0.00000   0.00000   0.00000
  71 10  H  1S          0.03106   0.00214   0.00000   0.06233  -0.00100
  72        2S          0.00721   0.00218   0.00000   0.06099  -0.00236
  73 11  H  1S          0.03417   0.01976   0.04239   0.00256   0.00002
  74        2S          0.01178   0.01899   0.04159   0.00265   0.00035
  75 12  H  1S          0.03417   0.01976   0.04239   0.00257   0.00002
  76        2S          0.01178   0.01899   0.04159   0.00265   0.00035
                          66        67        68        69        70
  66        4YY         0.00109
  67        4ZZ        -0.00023   0.00179
  68        4XY         0.00000   0.00000   0.00165
  69        4XZ         0.00000   0.00000   0.00000   0.00069
  70        4YZ         0.00000   0.00000   0.00000   0.00000   0.00024
  71 10  H  1S         -0.00082   0.00697   0.00000   0.00054   0.00000
  72        2S         -0.00231   0.00610   0.00000   0.00009   0.00000
  73 11  H  1S          0.00256  -0.00087   0.00336   0.00024   0.00031
  74        2S          0.00255  -0.00223   0.00075   0.00004   0.00006
  75 12  H  1S          0.00256  -0.00087   0.00336   0.00024   0.00031
  76        2S          0.00255  -0.00223   0.00075   0.00004   0.00006
                          71        72        73        74        75
  71 10  H  1S          0.21236
  72        2S          0.10817   0.14039
  73 11  H  1S         -0.00042  -0.00636   0.21113
  74        2S         -0.00643  -0.01770   0.10657   0.13807
  75 12  H  1S         -0.00042  -0.00636  -0.00042  -0.00637   0.21113
  76        2S         -0.00643  -0.01770  -0.00637  -0.01743   0.10657
                          76
  76        2S          0.13807
     Gross orbital populations:
                           1
   1 1   C  1S          1.99181
   2        2S          0.70601
   3        2PX         0.71001
   4        2PY         0.57270
   5        2PZ         0.76457
   6        3S          0.51997
   7        3PX         0.20641
   8        3PY         0.43183
   9        3PZ         0.18763
  10        4XX         0.00650
  11        4YY        -0.02449
  12        4ZZ         0.00307
  13        4XY         0.00200
  14        4XZ         0.01452
  15        4YZ         0.00584
  16 2   C  1S          1.99181
  17        2S          0.70601
  18        2PX         0.71001
  19        2PY         0.57270
  20        2PZ         0.76457
  21        3S          0.51997
  22        3PX         0.20641
  23        3PY         0.43183
  24        3PZ         0.18763
  25        4XX         0.00650
  26        4YY        -0.02449
  27        4ZZ         0.00307
  28        4XY         0.00200
  29        4XZ         0.01452
  30        4YZ         0.00584
  31 3   H  1S          0.53223
  32        2S          0.34976
  33 4   H  1S          0.53223
  34        2S          0.34976
  35 5   C  1S          1.99183
  36        2S          0.67713
  37        2PX         0.70093
  38        2PY         0.71667
  39        2PZ         0.71403
  40        3S          0.63768
  41        3PX         0.31075
  42        3PY         0.35999
  43        3PZ         0.34794
  44        4XX        -0.00140
  45        4YY         0.00455
  46        4ZZ         0.00614
  47        4XY         0.01194
  48        4XZ         0.00564
  49        4YZ         0.00180
  50 6   H  1S          0.52364
  51        2S          0.31714
  52 7   H  1S          0.52735
  53        2S          0.32511
  54 8   H  1S          0.52364
  55        2S          0.31714
  56 9   C  1S          1.99183
  57        2S          0.67713
  58        2PX         0.70093
  59        2PY         0.71667
  60        2PZ         0.71403
  61        3S          0.63768
  62        3PX         0.31075
  63        3PY         0.35999
  64        3PZ         0.34794
  65        4XX        -0.00140
  66        4YY         0.00455
  67        4ZZ         0.00614
  68        4XY         0.01194
  69        4XZ         0.00564
  70        4YZ         0.00180
  71 10  H  1S          0.52735
  72        2S          0.32511
  73 11  H  1S          0.52364
  74        2S          0.31714
  75 12  H  1S          0.52364
  76        2S          0.31714
          Condensed to atoms (all electrons):
               1          2          3          4          5          6
     1  C    4.837150   0.706297   0.372041  -0.050442   0.365272  -0.032301
     2  C    0.706297   4.837150  -0.050442   0.372041  -0.032880  -0.007392
     3  H    0.372041  -0.050442   0.613940   0.007043  -0.057689   0.003680
     4  H   -0.050442   0.372041   0.007043   0.613940  -0.009376   0.002115
     5  C    0.365272  -0.032880  -0.057689  -0.009376   5.097685   0.373876
     6  H   -0.032301  -0.007392   0.003680   0.002115   0.373876   0.562331
     7  H   -0.023098   0.003408  -0.005194   0.000084   0.370156  -0.030918
     8  H   -0.032301  -0.007392   0.003680   0.002115   0.373876  -0.030601
     9  C   -0.032880   0.365272  -0.009376  -0.057689   0.004925  -0.000035
    10  H    0.003408  -0.023098   0.000084  -0.005194  -0.000162   0.000003
    11  H   -0.007392  -0.032301   0.002115   0.003680  -0.000035  -0.000014
    12  H   -0.007392  -0.032301   0.002115   0.003680  -0.000035   0.000041
               7          8          9         10         11         12
     1  C   -0.023098  -0.032301  -0.032880   0.003408  -0.007392  -0.007392
     2  C    0.003408  -0.007392   0.365272  -0.023098  -0.032301  -0.032301
     3  H   -0.005194   0.003680  -0.009376   0.000084   0.002115   0.002115
     4  H    0.000084   0.002115  -0.057689  -0.005194   0.003680   0.003680
     5  C    0.370156   0.373876   0.004925  -0.000162  -0.000035  -0.000035
     6  H   -0.030918  -0.030601  -0.000035   0.000003  -0.000014   0.000041
     7  H    0.569090  -0.030918  -0.000162   0.000002   0.000003   0.000003
     8  H   -0.030918   0.562331  -0.000035   0.000003   0.000041  -0.000014
     9  C   -0.000162  -0.000035   5.097685   0.370156   0.373876   0.373876
    10  H    0.000002   0.000003   0.370156   0.569090  -0.030918  -0.030918
    11  H    0.000003   0.000041   0.373876  -0.030918   0.562331  -0.030601
    12  H    0.000003  -0.000014   0.373876  -0.030918  -0.030601   0.562331
 Mulliken charges:
               1
     1  C   -0.098363
     2  C   -0.098363
     3  H    0.118003
     4  H    0.118003
     5  C   -0.485612
     6  H    0.159214
     7  H    0.147544
     8  H    0.159214
     9  C   -0.485612
    10  H    0.147544
    11  H    0.159214
    12  H    0.159214
 Sum of Mulliken charges =   0.00000
 Mulliken charges with hydrogens summed into heavy atoms:
               1
     1  C    0.019640
     2  C    0.019640
     5  C   -0.019640
     9  C   -0.019640
 Electronic spatial extent (au):  <R**2>=            402.4740
 Charge=              0.0000 electrons
 Dipole moment (field-independent basis, Debye):
    X=              0.0000    Y=              0.0000    Z=              0.0000  Tot=              0.0000
 Quadrupole moment (field-independent basis, Debye-Ang):
   XX=            -25.3172   YY=            -27.4913   ZZ=            -25.0576
   XY=              0.0000   XZ=             -0.0710   YZ=              0.0000
 Traceless Quadrupole moment (field-independent basis, Debye-Ang):
   XX=              0.6382   YY=             -1.5360   ZZ=              0.8978
   XY=              0.0000   XZ=             -0.0710   YZ=              0.0000
 Octapole moment (field-independent basis, Debye-Ang**2):
  XXX=              0.0000  YYY=              0.0000  ZZZ=              0.0000  XYY=              0.0000
  XXY=              0.0000  XXZ=              0.0000  XZZ=              0.0000  YZZ=              0.0000
  YYZ=              0.0000  XYZ=              0.0000
 Hexadecapole moment (field-independent basis, Debye-Ang**3):
 XXXX=           -220.0118 YYYY=            -41.5800 ZZZZ=           -279.5513 XXXY=              0.0000
 XXXZ=             92.3146 YYYX=              0.0000 YYYZ=             -0.0001 ZZZX=             91.9687
 ZZZY=             -0.0001 XXYY=            -40.1921 XXZZ=            -86.4760 YYZZ=            -57.0179
 XXYZ=              0.0000 YYXZ=             29.0337 ZZXY=              0.0000
 N-N= 1.151931600411D+02 E-N=-5.933731532571D+02  KE= 1.555889217161D+02
 Symmetry AG   KE= 7.841615522886D+01
 Symmetry AU   KE= 7.717276648724D+01
 Orbital energies and kinetic energies (alpha):
                                 1                 2
   1         O               -10.176526         15.873422
   2         O               -10.176101         15.881719
   3         O               -10.176037         15.882525
   4         O               -10.175600         15.888868
   5         O                -0.785914          1.459577
   6         O                -0.718914          1.353520
   7         O                -0.637151          1.455347
   8         O                -0.538163          1.176312
   9         O                -0.434272          1.147880
  10         O                -0.434102          1.060464
  11         O                -0.410243          0.926364
  12         O                -0.396368          0.964611
  13         O                -0.371242          1.068619
  14         O                -0.352682          1.313398
  15         O                -0.330673          1.198734
  16         O                -0.231598          1.143102
  17         V                 0.023075          1.207608
  18         V                 0.120561          0.922184
  19         V                 0.121257          1.004142
  20         V                 0.131244          0.903976
  21         V                 0.143615          0.985847
  22         V                 0.174868          0.892813
  23         V                 0.196580          1.026207
  24         V                 0.213374          1.108619
  25         V                 0.217229          1.154921
  26         V                 0.243831          1.758914
  27         V                 0.309360          1.172120
  28         V                 0.366089          1.256476
  29         V                 0.495206          1.594943
  30         V                 0.515670          1.845404
  31         V                 0.549774          1.865868
  32         V                 0.582077          1.988732
  33         V                 0.583663          2.245320
  34         V                 0.594605          1.742612
  35         V                 0.666501          1.910030
  36         V                 0.701542          2.104453
  37         V                 0.732348          2.123440
  38         V                 0.775539          2.619257
  39         V                 0.792588          2.320999
  40         V                 0.803387          2.271672
  41         V                 0.877735          2.601364
  42         V                 0.878033          2.513438
  43         V                 0.889146          2.566708
  44         V                 0.896870          2.589223
  45         V                 0.918269          2.474312
  46         V                 0.923133          2.509013
  47         V                 0.957851          2.700431
  48         V                 0.964635          2.722266
  49         V                 1.147516          2.441327
  50         V                 1.208241          2.086799
  51         V                 1.234718          2.348745
  52         V                 1.427056          2.594042
  53         V                 1.434765          2.565997
  54         V                 1.436026          2.372016
  55         V                 1.590825          2.743699
  56         V                 1.802152          2.990626
  57         V                 1.804127          3.120703
  58         V                 1.891161          3.198660
  59         V                 1.899335          3.181145
  60         V                 2.011098          3.164424
  61         V                 2.135311          3.487325
  62         V                 2.149664          3.454842
  63         V                 2.159271          3.395745
  64         V                 2.159784          3.530694
  65         V                 2.173579          3.557814
  66         V                 2.338055          3.656571
  67         V                 2.371772          3.808902
  68         V                 2.402736          3.810863
  69         V                 2.532414          3.816118
  70         V                 2.650279          4.284622
  71         V                 2.812355          4.839069
  72         V                 2.938225          4.600452
  73         V                 4.116731         10.160308
  74         V                 4.174699         10.202089
  75         V                 4.307900         10.133919
  76         V                 4.462218         10.142843
 Total kinetic energy from orbitals= 1.555889217161D+02
 Leave Link  601 at Sat Jun 05 22:36:23 2021, MaxMem=    33554432 cpu:         0.0
 (Enter C:\G09W\l9999.exe)
 1|1|UNPC-DESKTOP-283F0EC|SP|RB3LYP TD-FC|6-31G(d)|C4H8|HANA|05-Jun-202
 1|0||#p td=(nstates=10) b3lyp/6-31g(d) geom=connectivity pop=full scf=
 tight||Ethylene Geometry Optimization||0,1|C,0,0.03255719,-0.0000014,-
 0.66693764|C,0,-0.03255719,0.0000014,0.66693764|H,0,-0.9002927,-0.0000
 0493,-1.23410587|H,0,0.9002927,0.00000493,1.23410587|C,0,1.3133642,-0.
 00000034,-1.47220396|H,0,1.92922325,-0.88274043,-1.25768042|H,0,1.1083
 3042,0.00000428,-2.5474893|H,0,1.92922634,0.88273581,-1.25767325|C,0,-
 1.3133642,0.00000034,1.47220396|H,0,-1.10833042,-0.00000428,2.5474893|
 H,0,-1.92922325,0.88274043,1.25768042|H,0,-1.92922634,-0.88273581,1.25
 767325||Version=EM64W-G09RevD.01|State=1-AG|HF=-157.2202318|RMSD=1.090
 e-009|PG=CI [X(C4H8)]||@


 LIVE PURE, SPEAK TRUE, RIGHT WRONG, FOLLOW THE KING...
 ELSE, WHEREFORE BORN......
           IDYLLS OF THE KING, TENNYSON
 Job cpu time:       0 days  0 hours  0 minutes 55.0 seconds.
 File lengths (MBytes):  RWF=     21 Int=      0 D2E=      0 Chk=      3 Scr=      1
 Normal termination of Gaussian 09 at Sat Jun 05 22:36:23 2021.
