 Entering Link 1 = C:\G09W\l1.exe PID=     14920.
  
 Copyright (c) 1988,1990,1992,1993,1995,1998,2003,2009,2013,
            Gaussian, Inc.  All Rights Reserved.
  
 This is part of the Gaussian(R) 09 program.  It is based on
 the Gaussian(R) 03 system (copyright 2003, Gaussian, Inc.),
 the Gaussian(R) 98 system (copyright 1998, Gaussian, Inc.),
 the Gaussian(R) 94 system (copyright 1995, Gaussian, Inc.),
 the Gaussian 92(TM) system (copyright 1992, Gaussian, Inc.),
 the Gaussian 90(TM) system (copyright 1990, Gaussian, Inc.),
 the Gaussian 88(TM) system (copyright 1988, Gaussian, Inc.),
 the Gaussian 86(TM) system (copyright 1986, Carnegie Mellon
 University), and the Gaussian 82(TM) system (copyright 1983,
 Carnegie Mellon University). Gaussian is a federally registered
 trademark of Gaussian, Inc.
  
 This software contains proprietary and confidential information,
 including trade secrets, belonging to Gaussian, Inc.
  
 This software is provided under written license and may be
 used, copied, transmitted, or stored only in accord with that
 written license.
  
 The following legend is applicable only to US Government
 contracts under FAR:
  
                    RESTRICTED RIGHTS LEGEND
  
 Use, reproduction and disclosure by the US Government is
 subject to restrictions as set forth in subparagraphs (a)
 and (c) of the Commercial Computer Software - Restricted
 Rights clause in FAR 52.227-19.
  
 Gaussian, Inc.
 340 Quinnipiac St., Bldg. 40, Wallingford CT 06492
  
  
 ---------------------------------------------------------------
 Warning -- This program may not be used in any manner that
 competes with the business of Gaussian, Inc. or will provide
 assistance to any competitor of Gaussian, Inc.  The licensee
 of this program is prohibited from giving any competitor of
 Gaussian, Inc. access to this program.  By using this program,
 the user acknowledges that Gaussian, Inc. is engaged in the
 business of creating and licensing software in the field of
 computational chemistry and represents and warrants to the
 licensee that it is not a competitor of Gaussian, Inc. and that
 it will not use this program in any manner prohibited above.
 ---------------------------------------------------------------
  

 Cite this work as:
 Gaussian 09, Revision D.01,
 M. J. Frisch, G. W. Trucks, H. B. Schlegel, G. E. Scuseria, 
 M. A. Robb, J. R. Cheeseman, G. Scalmani, V. Barone, B. Mennucci, 
 G. A. Petersson, H. Nakatsuji, M. Caricato, X. Li, H. P. Hratchian, 
 A. F. Izmaylov, J. Bloino, G. Zheng, J. L. Sonnenberg, M. Hada, 
 M. Ehara, K. Toyota, R. Fukuda, J. Hasegawa, M. Ishida, T. Nakajima, 
 Y. Honda, O. Kitao, H. Nakai, T. Vreven, J. A. Montgomery, Jr., 
 J. E. Peralta, F. Ogliaro, M. Bearpark, J. J. Heyd, E. Brothers, 
 K. N. Kudin, V. N. Staroverov, T. Keith, R. Kobayashi, J. Normand, 
 K. Raghavachari, A. Rendell, J. C. Burant, S. S. Iyengar, J. Tomasi, 
 M. Cossi, N. Rega, J. M. Millam, M. Klene, J. E. Knox, J. B. Cross, 
 V. Bakken, C. Adamo, J. Jaramillo, R. Gomperts, R. E. Stratmann, 
 O. Yazyev, A. J. Austin, R. Cammi, C. Pomelli, J. W. Ochterski, 
 R. L. Martin, K. Morokuma, V. G. Zakrzewski, G. A. Voth, 
 P. Salvador, J. J. Dannenberg, S. Dapprich, A. D. Daniels, 
 O. Farkas, J. B. Foresman, J. V. Ortiz, J. Cioslowski, 
 and D. J. Fox, Gaussian, Inc., Wallingford CT, 2013.
 
 ******************************************
 Gaussian 09:  EM64W-G09RevD.01 13-Apr-2013
                05-Jun-2021 
 ******************************************
 %chk=C:\G09W\mine\substituent\mini_0_pp.chk
 --------------------------------------------------------------
 # opt b3lyp/6-31g(d) geom=connectivity int=ultrafine scf=tight
 --------------------------------------------------------------
 1/14=-1,18=20,19=15,26=4,38=1,57=2/1,3;
 2/9=110,12=2,17=6,18=5,40=1/2;
 3/5=1,6=6,7=1,11=2,16=1,25=1,30=1,71=1,74=-5,75=-5/1,2,3;
 4//1;
 5/5=2,32=2,38=5/2;
 6/7=2,8=2,9=2,10=2,28=1/1;
 7//1,2,3,16;
 1/14=-1,18=20,19=15,26=4/3(2);
 2/9=110/2;
 99//99;
 2/9=110/2;
 3/5=1,6=6,7=1,11=2,16=1,25=1,30=1,71=1,74=-5,75=-5/1,2,3;
 4/5=5,16=3,69=1/1;
 5/5=2,32=2,38=5/2;
 7//1,2,3,16;
 1/14=-1,18=20,19=15,26=4/3(-5);
 2/9=110/2;
 6/7=2,8=2,9=2,10=2,19=2,28=1/1;
 99/9=1/99;
 ------------------------------
 Ethylene Geometry Optimization
 ------------------------------
 Symbolic Z-matrix:
 Charge =  0 Multiplicity = 1
 C                     0.        0.        0. 
 C                     0.        0.        1.31 
 H                    -0.91232   0.       -0.55907 
 H                     0.91232   0.        1.86907 
 C                     1.31307   0.       -0.80465 
 H                     1.88072  -0.87365  -0.56093 
 H                     1.09007   0.       -1.85115 
 H                     1.88072   0.87365  -0.56093 
 C                    -1.31307   0.        2.11465 
 H                    -1.09007  0.         3.16115 
 H                    -1.88072   0.87365   1.87093 
 H                    -1.88072  -0.87365   1.87093 
 

 GradGradGradGradGradGradGradGradGradGradGradGradGradGradGradGradGradGrad
 Berny optimization.
 Initialization pass.
                           ----------------------------
                           !    Initial Parameters    !
                           ! (Angstroms and Degrees)  !
 --------------------------                            --------------------------
 ! Name  Definition              Value          Derivative Info.                !
 --------------------------------------------------------------------------------
 ! R1    R(1,2)                  1.31           estimate D2E/DX2                !
 ! R2    R(1,3)                  1.07           estimate D2E/DX2                !
 ! R3    R(1,5)                  1.54           estimate D2E/DX2                !
 ! R4    R(2,4)                  1.07           estimate D2E/DX2                !
 ! R5    R(2,9)                  1.54           estimate D2E/DX2                !
 ! R6    R(5,6)                  1.07           estimate D2E/DX2                !
 ! R7    R(5,7)                  1.07           estimate D2E/DX2                !
 ! R8    R(5,8)                  1.07           estimate D2E/DX2                !
 ! R9    R(9,10)                 1.07           estimate D2E/DX2                !
 ! R10   R(9,11)                 1.07           estimate D2E/DX2                !
 ! R11   R(9,12)                 1.07           estimate D2E/DX2                !
 ! A1    A(2,1,3)              121.5            estimate D2E/DX2                !
 ! A2    A(2,1,5)              121.5            estimate D2E/DX2                !
 ! A3    A(3,1,5)              117.0            estimate D2E/DX2                !
 ! A4    A(1,2,4)              121.5            estimate D2E/DX2                !
 ! A5    A(1,2,9)              121.5            estimate D2E/DX2                !
 ! A6    A(4,2,9)              117.0            estimate D2E/DX2                !
 ! A7    A(1,5,6)              109.4712         estimate D2E/DX2                !
 ! A8    A(1,5,7)              109.4712         estimate D2E/DX2                !
 ! A9    A(1,5,8)              109.4712         estimate D2E/DX2                !
 ! A10   A(6,5,7)              109.4713         estimate D2E/DX2                !
 ! A11   A(6,5,8)              109.4712         estimate D2E/DX2                !
 ! A12   A(7,5,8)              109.4712         estimate D2E/DX2                !
 ! A13   A(2,9,10)             109.4712         estimate D2E/DX2                !
 ! A14   A(2,9,11)             109.4712         estimate D2E/DX2                !
 ! A15   A(2,9,12)             109.4712         estimate D2E/DX2                !
 ! A16   A(10,9,11)            109.4713         estimate D2E/DX2                !
 ! A17   A(10,9,12)            109.4712         estimate D2E/DX2                !
 ! A18   A(11,9,12)            109.4712         estimate D2E/DX2                !
 ! D1    D(3,1,2,4)            180.0            estimate D2E/DX2                !
 ! D2    D(3,1,2,9)              0.0            estimate D2E/DX2                !
 ! D3    D(5,1,2,4)              0.0            estimate D2E/DX2                !
 ! D4    D(5,1,2,9)            180.0            estimate D2E/DX2                !
 ! D5    D(2,1,5,6)             60.0001         estimate D2E/DX2                !
 ! D6    D(2,1,5,7)           -179.9999         estimate D2E/DX2                !
 ! D7    D(2,1,5,8)            -59.9999         estimate D2E/DX2                !
 ! D8    D(3,1,5,6)           -119.9999         estimate D2E/DX2                !
 ! D9    D(3,1,5,7)              0.0001         estimate D2E/DX2                !
 ! D10   D(3,1,5,8)            120.0001         estimate D2E/DX2                !
 ! D11   D(1,2,9,10)           179.9999         estimate D2E/DX2                !
 ! D12   D(1,2,9,11)           -60.0            estimate D2E/DX2                !
 ! D13   D(1,2,9,12)            59.9999         estimate D2E/DX2                !
 ! D14   D(4,2,9,10)            -0.0001         estimate D2E/DX2                !
 ! D15   D(4,2,9,11)           120.0            estimate D2E/DX2                !
 ! D16   D(4,2,9,12)          -120.0001         estimate D2E/DX2                !
 --------------------------------------------------------------------------------
 Trust Radius=3.00D-01 FncErr=1.00D-07 GrdErr=1.00D-06
 Number of steps in this run=     55 maximum allowed number of steps=    100.
 GradGradGradGradGradGradGradGradGradGradGradGradGradGradGradGradGradGrad

                          Input orientation:                          
 ---------------------------------------------------------------------
 Center     Atomic      Atomic             Coordinates (Angstroms)
 Number     Number       Type             X           Y           Z
 ---------------------------------------------------------------------
      1          6           0        0.000000    0.000000    0.000000
      2          6           0        0.000000    0.000000    1.310000
      3          1           0       -0.912325    0.000000   -0.559073
      4          1           0        0.912325    0.000000    1.869073
      5          6           0        1.313066    0.000000   -0.804648
      6          1           0        1.880723   -0.873652   -0.560932
      7          1           0        1.090074    0.000002   -1.851154
      8          1           0        1.880725    0.873651   -0.560930
      9          6           0       -1.313066    0.000000    2.114648
     10          1           0       -1.090074   -0.000001    3.161154
     11          1           0       -1.880723    0.873652    1.870932
     12          1           0       -1.880725   -0.873651    1.870931
 ---------------------------------------------------------------------
                    Distance matrix (angstroms):
                    1          2          3          4          5
     1  C    0.000000
     2  C    1.310000   0.000000
     3  H    1.070000   2.079849   0.000000
     4  H    2.079849   1.070000   3.037309   0.000000
     5  C    1.540000   2.489152   2.238900   2.703586   0.000000
     6  H    2.148263   2.792987   2.926498   2.757896   1.070000
     7  H    2.148263   3.343823   2.383081   3.724471   1.070000
     8  H    2.148263   2.792986   2.926499   2.757895   1.070000
     9  C    2.489152   1.540000   2.703586   2.238900   3.926685
    10  H    3.343823   2.148263   3.724471   2.383081   4.637097
    11  H    2.792987   2.148263   2.757896   2.926498   4.257028
    12  H    2.792986   2.148263   2.757895   2.926499   4.257028
                    6          7          8          9         10
     6  H    0.000000
     7  H    1.747303   0.000000
     8  H    1.747303   1.747303   0.000000
     9  C    4.257028   4.637097   4.257027   0.000000
    10  H    4.841779   5.465919   4.841779   1.070000   0.000000
    11  H    4.807860   4.841779   4.479112   1.070000   1.747303
    12  H    4.479112   4.841780   4.807859   1.070000   1.747303
                   11         12
    11  H    0.000000
    12  H    1.747303   0.000000
 Stoichiometry    C4H8
 Framework group  CI[X(C4H8)]
 Deg. of freedom    15
 Full point group                 CI      NOp   2
 Largest Abelian subgroup         CI      NOp   2
 Largest concise Abelian subgroup CI      NOp   2
                         Standard orientation:                         
 ---------------------------------------------------------------------
 Center     Atomic      Atomic             Coordinates (Angstroms)
 Number     Number       Type             X           Y           Z
 ---------------------------------------------------------------------
      1          6           0        0.000000    0.000000   -0.655000
      2          6           0        0.000000    0.000000    0.655000
      3          1           0       -0.912325    0.000000   -1.214073
      4          1           0        0.912325    0.000000    1.214073
      5          6           0        1.313066    0.000000   -1.459648
      6          1           0        1.880723   -0.873652   -1.215932
      7          1           0        1.090074    0.000002   -2.506154
      8          1           0        1.880725    0.873651   -1.215930
      9          6           0       -1.313066    0.000000    1.459648
     10          1           0       -1.090074   -0.000002    2.506154
     11          1           0       -1.880723    0.873652    1.215932
     12          1           0       -1.880725   -0.873651    1.215930
 ---------------------------------------------------------------------
 Rotational constants (GHZ):     34.1427444      3.7690977      3.5407322
 Standard basis: 6-31G(d) (6D, 7F)
 There are    38 symmetry adapted cartesian basis functions of AG  symmetry.
 There are    38 symmetry adapted cartesian basis functions of AU  symmetry.
 There are    38 symmetry adapted basis functions of AG  symmetry.
 There are    38 symmetry adapted basis functions of AU  symmetry.
    76 basis functions,   144 primitive gaussians,    76 cartesian basis functions
    16 alpha electrons       16 beta electrons
       nuclear repulsion energy       116.2859469541 Hartrees.
 NAtoms=   12 NActive=   12 NUniq=    6 SFac= 4.00D+00 NAtFMM=   60 NAOKFM=F Big=F
 Integral buffers will be    131072 words long.
 Raffenetti 2 integral format.
 Two-electron integral symmetry is turned on.
 One-electron integrals computed using PRISM.
 NBasis=    76 RedAO= T EigKep=  2.96D-03  NBF=    38    38
 NBsUse=    76 1.00D-06 EigRej= -1.00D+00 NBFU=    38    38
 ExpMin= 1.61D-01 ExpMax= 3.05D+03 ExpMxC= 4.57D+02 IAcc=3 IRadAn=         5 AccDes= 0.00D+00
 Harris functional with IExCor=  402 and IRadAn=       5 diagonalized for initial guess.
 HarFok:  IExCor=  402 AccDes= 0.00D+00 IRadAn=         5 IDoV= 1 UseB2=F ITyADJ=14
 ICtDFT=  3500011 ScaDFX=  1.000000  1.000000  1.000000  1.000000
 FoFCou: FMM=F IPFlag=           0 FMFlag=      100000 FMFlg1=           0
         NFxFlg=           0 DoJE=T BraDBF=F KetDBF=T FulRan=T
         wScrn=  0.000000 ICntrl=     500 IOpCl=  0 I1Cent=   200000004 NGrid=           0
         NMat0=    1 NMatS0=      1 NMatT0=    0 NMatD0=    1 NMtDS0=    0 NMtDT0=    0
 Petite list used in FoFCou.
 Initial guess orbital symmetries:
       Occupied  (AU) (AG) (AG) (AU) (AG) (AU) (AG) (AU) (AG) (AU)
                 (AU) (AG) (AU) (AG) (AG) (AU)
       Virtual   (AG) (AU) (AG) (AU) (AG) (AU) (AU) (AU) (AG) (AG)
                 (AG) (AU) (AG) (AU) (AU) (AG) (AU) (AG) (AU) (AG)
                 (AG) (AU) (AU) (AG) (AG) (AU) (AG) (AU) (AU) (AG)
                 (AU) (AG) (AU) (AG) (AG) (AG) (AU) (AU) (AU) (AU)
                 (AG) (AU) (AG) (AG) (AU) (AG) (AU) (AG) (AG) (AU)
                 (AU) (AG) (AG) (AU) (AU) (AG) (AG) (AU) (AG) (AU)
 The electronic state of the initial guess is 1-AG.
 Keep R1 ints in memory in symmetry-blocked form, NReq=6467888.
 Requested convergence on RMS density matrix=1.00D-08 within 128 cycles.
 Requested convergence on MAX density matrix=1.00D-06.
 Requested convergence on             energy=1.00D-06.
 No special actions if energy rises.
 Integral accuracy reduced to 1.0D-05 until final iterations.
 Initial convergence to 1.0D-05 achieved.  Increase integral accuracy.
 SCF Done:  E(RB3LYP) =  -157.214110508     A.U. after   10 cycles
            NFock= 10  Conv=0.99D-08     -V/T= 2.0086

 **********************************************************************

            Population analysis using the SCF density.

 **********************************************************************

 Orbital symmetries:
       Occupied  (AG) (AU) (AU) (AG) (AG) (AU) (AG) (AU) (AG) (AU)
                 (AU) (AG) (AU) (AG) (AG) (AU)
       Virtual   (AG) (AG) (AU) (AU) (AG) (AU) (AU) (AG) (AG) (AU)
                 (AG) (AU) (AG) (AU) (AU) (AU) (AG) (AG) (AU) (AG)
                 (AG) (AU) (AU) (AG) (AG) (AG) (AU) (AU) (AG) (AU)
                 (AU) (AG) (AU) (AG) (AG) (AG) (AU) (AU) (AU) (AG)
                 (AU) (AU) (AG) (AG) (AU) (AG) (AU) (AG) (AG) (AU)
                 (AU) (AG) (AG) (AU) (AU) (AG) (AG) (AU) (AG) (AU)
 The electronic state is 1-AG.
 Alpha  occ. eigenvalues --  -10.17015 -10.16911 -10.16663 -10.16663  -0.78860
 Alpha  occ. eigenvalues --   -0.71800  -0.64024  -0.54325  -0.43861  -0.42750
 Alpha  occ. eigenvalues --   -0.41626  -0.40270  -0.37634  -0.35613  -0.32246
 Alpha  occ. eigenvalues --   -0.23511
 Alpha virt. eigenvalues --    0.03091   0.12513   0.12766   0.13671   0.15264
 Alpha virt. eigenvalues --    0.18263   0.20442   0.21973   0.21989   0.23375
 Alpha virt. eigenvalues --    0.30027   0.36614   0.49173   0.53274   0.54856
 Alpha virt. eigenvalues --    0.57744   0.58338   0.58641   0.65619   0.69689
 Alpha virt. eigenvalues --    0.71874   0.77545   0.79702   0.80463   0.90024
 Alpha virt. eigenvalues --    0.90524   0.90714   0.91241   0.93906   0.94460
 Alpha virt. eigenvalues --    0.98359   0.99045   1.17023   1.18347   1.25993
 Alpha virt. eigenvalues --    1.42740   1.43651   1.44269   1.58761   1.80604
 Alpha virt. eigenvalues --    1.82265   1.88694   1.89200   2.01183   2.16307
 Alpha virt. eigenvalues --    2.17662   2.18801   2.20408   2.21504   2.34278
 Alpha virt. eigenvalues --    2.38913   2.40884   2.52208   2.64995   2.82518
 Alpha virt. eigenvalues --    2.95177   4.13630   4.17983   4.30464   4.46711
          Condensed to atoms (all electrons):
               1          2          3          4          5          6
     1  C    4.840122   0.717377   0.373957  -0.049707   0.363109  -0.032278
     2  C    0.717377   4.840122  -0.049707   0.373957  -0.035581  -0.008194
     3  H    0.373957  -0.049707   0.607716   0.007156  -0.056893   0.003705
     4  H   -0.049707   0.373957   0.007156   0.607716  -0.010447   0.002227
     5  C    0.363109  -0.035581  -0.056893  -0.010447   5.087134   0.380047
     6  H   -0.032278  -0.008194   0.003705   0.002227   0.380047   0.551146
     7  H   -0.024868   0.003919  -0.004224   0.000180   0.372193  -0.029756
     8  H   -0.032278  -0.008194   0.003705   0.002227   0.380048  -0.029221
     9  C   -0.035581   0.363109  -0.010447  -0.056893   0.005367  -0.000037
    10  H    0.003919  -0.024868   0.000180  -0.004224  -0.000201   0.000005
    11  H   -0.008194  -0.032278   0.002227   0.003705  -0.000037  -0.000015
    12  H   -0.008194  -0.032278   0.002227   0.003705  -0.000037   0.000044
               7          8          9         10         11         12
     1  C   -0.024868  -0.032278  -0.035581   0.003919  -0.008194  -0.008194
     2  C    0.003919  -0.008194   0.363109  -0.024868  -0.032278  -0.032278
     3  H   -0.004224   0.003705  -0.010447   0.000180   0.002227   0.002227
     4  H    0.000180   0.002227  -0.056893  -0.004224   0.003705   0.003705
     5  C    0.372193   0.380048   0.005367  -0.000201  -0.000037  -0.000037
     6  H   -0.029756  -0.029221  -0.000037   0.000005  -0.000015   0.000044
     7  H    0.565465  -0.029756  -0.000201   0.000002   0.000005   0.000005
     8  H   -0.029756   0.551146  -0.000037   0.000005   0.000044  -0.000015
     9  C   -0.000201  -0.000037   5.087134   0.372193   0.380047   0.380048
    10  H    0.000002   0.000005   0.372193   0.565465  -0.029756  -0.029756
    11  H    0.000005   0.000044   0.380047  -0.029756   0.551146  -0.029221
    12  H    0.000005  -0.000015   0.380048  -0.029756  -0.029221   0.551146
 Mulliken charges:
               1
     1  C   -0.107385
     2  C   -0.107385
     3  H    0.120398
     4  H    0.120398
     5  C   -0.484701
     6  H    0.162326
     7  H    0.147036
     8  H    0.162326
     9  C   -0.484701
    10  H    0.147036
    11  H    0.162326
    12  H    0.162326
 Sum of Mulliken charges =   0.00000
 Mulliken charges with hydrogens summed into heavy atoms:
               1
     1  C    0.013013
     2  C    0.013013
     5  C   -0.013013
     9  C   -0.013013
 Electronic spatial extent (au):  <R**2>=            393.7615
 Charge=              0.0000 electrons
 Dipole moment (field-independent basis, Debye):
    X=              0.0000    Y=              0.0000    Z=              0.0000  Tot=              0.0000
 Quadrupole moment (field-independent basis, Debye-Ang):
   XX=            -25.4454   YY=            -27.1858   ZZ=            -25.1486
   XY=              0.0000   XZ=              0.3993   YZ=              0.0000
 Traceless Quadrupole moment (field-independent basis, Debye-Ang):
   XX=              0.4812   YY=             -1.2592   ZZ=              0.7780
   XY=              0.0000   XZ=              0.3993   YZ=              0.0000
 Octapole moment (field-independent basis, Debye-Ang**2):
  XXX=              0.0000  YYY=              0.0000  ZZZ=              0.0000  XYY=              0.0000
  XXY=              0.0000  XXZ=              0.0000  XZZ=              0.0000  YZZ=              0.0000
  YYZ=              0.0000  XYZ=              0.0000
 Hexadecapole moment (field-independent basis, Debye-Ang**3):
 XXXX=           -216.6535 YYYY=            -40.3788 ZZZZ=           -271.8667 XXXY=              0.0000
 XXXZ=             91.0374 YYYX=              0.0000 YYYZ=              0.0000 ZZZX=             90.5973
 ZZZY=              0.0000 XXYY=            -39.2566 XXZZ=            -85.6673 YYZZ=            -55.0663
 XXYZ=              0.0000 YYXZ=             27.9976 ZZXY=              0.0000
 N-N= 1.162859469541D+02 E-N=-5.958085952351D+02  KE= 1.558766873314D+02
 Symmetry AG   KE= 7.859091130798D+01
 Symmetry AU   KE= 7.728577602343D+01
 Calling FoFJK, ICntrl=      2127 FMM=F ISym2X=1 I1Cent= 0 IOpClX= 0 NMat=1 NMatS=1 NMatT=0.
 ***** Axes restored to original set *****
 -------------------------------------------------------------------
 Center     Atomic                   Forces (Hartrees/Bohr)
 Number     Number              X              Y              Z
 -------------------------------------------------------------------
      1        6           0.034465964    0.000000030   -0.024640406
      2        6          -0.034465964   -0.000000030    0.024640406
      3        1          -0.012875750   -0.000000009   -0.005732809
      4        1           0.012875750    0.000000009    0.005732809
      5        6          -0.032703773    0.000000018    0.013219680
      6        1           0.012068052   -0.013298197    0.001365671
      7        1           0.001067975   -0.000000010   -0.017388908
      8        1           0.012068054    0.013298164    0.001365769
      9        6           0.032703773   -0.000000018   -0.013219680
     10        1          -0.001067975    0.000000010    0.017388908
     11        1          -0.012068052    0.013298197   -0.001365671
     12        1          -0.012068054   -0.013298164   -0.001365769
 -------------------------------------------------------------------
 Cartesian Forces:  Max     0.034465964 RMS     0.015257426

 GradGradGradGradGradGradGradGradGradGradGradGradGradGradGradGradGradGrad
 Berny optimization.
 FormGI is forming the generalized inverse of G from B-inverse, IUseBI=4.
 Internal  Forces:  Max     0.031811406 RMS     0.009212731
 Search for a local minimum.
 Step number   1 out of a maximum of   55
 All quantities printed in internal units (Hartrees-Bohrs-Radians)
 Mixed Optimization -- RFO/linear search
 Second derivative matrix not updated -- first step.
 ITU=  0
     Eigenvalues ---    0.00237   0.00237   0.01519   0.01519   0.03279
     Eigenvalues ---    0.07243   0.07243   0.07243   0.07243   0.16000
     Eigenvalues ---    0.16000   0.16000   0.16000   0.16000   0.16000
     Eigenvalues ---    0.16000   0.16000   0.22000   0.22000   0.28519
     Eigenvalues ---    0.28519   0.37230   0.37230   0.37230   0.37230
     Eigenvalues ---    0.37230   0.37230   0.37230   0.37230   0.64491
 RFO step:  Lambda=-1.02453356D-02 EMin= 2.36824150D-03
 Linear search not attempted -- first point.
 Iteration  1 RMS(Cart)=  0.04075156 RMS(Int)=  0.00044782
 Iteration  2 RMS(Cart)=  0.00046781 RMS(Int)=  0.00016312
 Iteration  3 RMS(Cart)=  0.00000041 RMS(Int)=  0.00016312
 ClnCor:  largest displacement from symmetrization is 5.23D-09 for atom     4.
 Variable       Old X    -DE/DX   Delta X   Delta X   Delta X     New X
                                 (Linear)    (Quad)   (Total)
    R1        2.47554   0.03181   0.00000   0.04856   0.04856   2.52410
    R2        2.02201   0.01397   0.00000   0.03653   0.03653   2.05854
    R3        2.91018  -0.00564   0.00000  -0.01910  -0.01910   2.89108
    R4        2.02201   0.01397   0.00000   0.03653   0.03653   2.05854
    R5        2.91018  -0.00564   0.00000  -0.01910  -0.01910   2.89108
    R6        2.02201   0.01757   0.00000   0.04593   0.04593   2.06794
    R7        2.02201   0.01678   0.00000   0.04388   0.04388   2.06588
    R8        2.02201   0.01757   0.00000   0.04593   0.04593   2.06794
    R9        2.02201   0.01678   0.00000   0.04388   0.04388   2.06588
   R10        2.02201   0.01757   0.00000   0.04593   0.04593   2.06794
   R11        2.02201   0.01757   0.00000   0.04593   0.04593   2.06794
    A1        2.12058  -0.00705   0.00000  -0.03348  -0.03348   2.08709
    A2        2.12058   0.01039   0.00000   0.04511   0.04511   2.16569
    A3        2.04204  -0.00333   0.00000  -0.01163  -0.01163   2.03040
    A4        2.12058  -0.00705   0.00000  -0.03348  -0.03348   2.08709
    A5        2.12058   0.01039   0.00000   0.04511   0.04511   2.16569
    A6        2.04204  -0.00333   0.00000  -0.01163  -0.01163   2.03040
    A7        1.91063   0.00383   0.00000   0.02242   0.02211   1.93275
    A8        1.91063   0.00504   0.00000   0.02974   0.02939   1.94002
    A9        1.91063   0.00383   0.00000   0.02242   0.02211   1.93275
   A10        1.91063  -0.00440   0.00000  -0.02571  -0.02604   1.88459
   A11        1.91063  -0.00389   0.00000  -0.02316  -0.02340   1.88723
   A12        1.91063  -0.00440   0.00000  -0.02571  -0.02604   1.88459
   A13        1.91063   0.00504   0.00000   0.02974   0.02939   1.94002
   A14        1.91063   0.00383   0.00000   0.02242   0.02211   1.93275
   A15        1.91063   0.00383   0.00000   0.02242   0.02211   1.93275
   A16        1.91063  -0.00440   0.00000  -0.02571  -0.02604   1.88459
   A17        1.91063  -0.00440   0.00000  -0.02571  -0.02604   1.88459
   A18        1.91063  -0.00389   0.00000  -0.02316  -0.02340   1.88723
    D1        3.14159   0.00000   0.00000   0.00000   0.00000   3.14159
    D2        0.00000   0.00000   0.00000   0.00000   0.00000   0.00000
    D3        0.00000   0.00000   0.00000   0.00000   0.00000   0.00000
    D4        3.14159   0.00000   0.00000   0.00000   0.00000   3.14159
    D5        1.04720  -0.00004   0.00000  -0.00045  -0.00049   1.04671
    D6       -3.14159   0.00000   0.00000   0.00000   0.00000  -3.14159
    D7       -1.04720   0.00004   0.00000   0.00045   0.00049  -1.04671
    D8       -2.09439  -0.00004   0.00000  -0.00045  -0.00049  -2.09488
    D9        0.00000   0.00000   0.00000   0.00000   0.00000   0.00000
   D10        2.09440   0.00004   0.00000   0.00045   0.00049   2.09489
   D11        3.14159   0.00000   0.00000   0.00000   0.00000   3.14159
   D12       -1.04720   0.00004   0.00000   0.00045   0.00049  -1.04671
   D13        1.04720  -0.00004   0.00000  -0.00045  -0.00049   1.04671
   D14        0.00000   0.00000   0.00000   0.00000   0.00000   0.00000
   D15        2.09439   0.00004   0.00000   0.00045   0.00049   2.09488
   D16       -2.09440  -0.00004   0.00000  -0.00045  -0.00049  -2.09489
         Item               Value     Threshold  Converged?
 Maximum Force            0.031811     0.000450     NO 
 RMS     Force            0.009213     0.000300     NO 
 Maximum Displacement     0.088761     0.001800     NO 
 RMS     Displacement     0.040793     0.001200     NO 
 Predicted change in Energy=-5.287133D-03
 GradGradGradGradGradGradGradGradGradGradGradGradGradGradGradGradGradGrad

                          Input orientation:                          
 ---------------------------------------------------------------------
 Center     Atomic      Atomic             Coordinates (Angstroms)
 Number     Number       Type             X           Y           Z
 ---------------------------------------------------------------------
      1          6           0        0.023511    0.000000   -0.012433
      2          6           0       -0.023511    0.000000    1.322433
      3          1           0       -0.904308    0.000000   -0.583214
      4          1           0        0.904308    0.000000    1.893214
      5          6           0        1.319981    0.000000   -0.824674
      6          1           0        1.920251   -0.886045   -0.596404
      7          1           0        1.113027    0.000002   -1.898124
      8          1           0        1.920252    0.886043   -0.596401
      9          6           0       -1.319981    0.000000    2.134674
     10          1           0       -1.113027   -0.000002    3.208124
     11          1           0       -1.920251    0.886045    1.906404
     12          1           0       -1.920252   -0.886043    1.906401
 ---------------------------------------------------------------------
                    Distance matrix (angstroms):
                    1          2          3          4          5
     1  C    0.000000
     2  C    1.335695   0.000000
     3  H    1.089330   2.099356   0.000000
     4  H    2.099356   1.089330   3.066560   0.000000
     5  C    1.529892   2.532793   2.237357   2.749490   0.000000
     6  H    2.173411   2.871450   2.960301   2.831150   1.094306
     7  H    2.177814   3.415218   2.408035   3.797079   1.093218
     8  H    2.173411   2.871448   2.960302   2.831148   1.094306
     9  C    2.532793   1.529892   2.749490   2.237357   3.965745
    10  H    3.415218   2.177814   3.797079   2.408035   4.709882
    11  H    2.871450   2.173411   2.831150   2.960301   4.329314
    12  H    2.871448   2.173411   2.831148   2.960302   4.329313
                    6          7          8          9         10
     6  H    0.000000
     7  H    1.769510   0.000000
     8  H    1.772088   1.769510   0.000000
     9  C    4.329314   4.709882   4.329313   0.000000
    10  H    4.945734   5.570376   4.945733   1.093218   0.000000
    11  H    4.914651   4.945734   4.584048   1.094306   1.769510
    12  H    4.584048   4.945733   4.914650   1.094306   1.769510
                   11         12
    11  H    0.000000
    12  H    1.772088   0.000000
 Stoichiometry    C4H8
 Framework group  CI[X(C4H8)]
 Deg. of freedom    15
 Full point group                 CI      NOp   2
 Largest Abelian subgroup         CI      NOp   2
 Largest concise Abelian subgroup CI      NOp   2
                         Standard orientation:                         
 ---------------------------------------------------------------------
 Center     Atomic      Atomic             Coordinates (Angstroms)
 Number     Number       Type             X           Y           Z
 ---------------------------------------------------------------------
      1          6           0        0.023511    0.000000   -0.667433
      2          6           0       -0.023511    0.000000    0.667433
      3          1           0       -0.904308    0.000000   -1.238214
      4          1           0        0.904308    0.000000    1.238214
      5          6           0        1.319981    0.000000   -1.479674
      6          1           0        1.920251   -0.886045   -1.251404
      7          1           0        1.113027    0.000002   -2.553124
      8          1           0        1.920252    0.886043   -1.251401
      9          6           0       -1.319981    0.000000    1.479674
     10          1           0       -1.113027   -0.000002    2.553124
     11          1           0       -1.920251    0.886045    1.251404
     12          1           0       -1.920252   -0.886043    1.251401
 ---------------------------------------------------------------------
 Rotational constants (GHZ):     34.1678980      3.6579639      3.4468658
 Standard basis: 6-31G(d) (6D, 7F)
 There are    38 symmetry adapted cartesian basis functions of AG  symmetry.
 There are    38 symmetry adapted cartesian basis functions of AU  symmetry.
 There are    38 symmetry adapted basis functions of AG  symmetry.
 There are    38 symmetry adapted basis functions of AU  symmetry.
    76 basis functions,   144 primitive gaussians,    76 cartesian basis functions
    16 alpha electrons       16 beta electrons
       nuclear repulsion energy       114.8693909812 Hartrees.
 NAtoms=   12 NActive=   12 NUniq=    6 SFac= 4.00D+00 NAtFMM=   60 NAOKFM=F Big=F
 Integral buffers will be    131072 words long.
 Raffenetti 2 integral format.
 Two-electron integral symmetry is turned on.
 One-electron integrals computed using PRISM.
 NBasis=    76 RedAO= T EigKep=  3.21D-03  NBF=    38    38
 NBsUse=    76 1.00D-06 EigRej= -1.00D+00 NBFU=    38    38
 Initial guess from the checkpoint file:  "C:\G09W\mine\substituent\mini_0_pp.chk"
 B after Tr=     0.000000    0.000000    0.000000
         Rot=    1.000000    0.000000   -0.000044    0.000000 Ang=   0.00 deg.
 Initial guess orbital symmetries:
       Occupied  (AG) (AU) (AU) (AG) (AG) (AU) (AG) (AU) (AG) (AU)
                 (AU) (AG) (AU) (AG) (AG) (AU)
       Virtual   (AG) (AG) (AG) (AG) (AG) (AG) (AG) (AG) (AG) (AG)
                 (AG) (AG) (AG) (AG) (AG) (AG) (AG) (AG) (AG) (AG)
                 (AG) (AG) (AG) (AG) (AG) (AG) (AG) (AG) (AG) (AG)
                 (AU) (AU) (AU) (AU) (AU) (AU) (AU) (AU) (AU) (AU)
                 (AU) (AU) (AU) (AU) (AU) (AU) (AU) (AU) (AU) (AU)
                 (AU) (AU) (AU) (AU) (AU) (AU) (AU) (AU) (AU) (AU)
 ExpMin= 1.61D-01 ExpMax= 3.05D+03 ExpMxC= 4.57D+02 IAcc=2 IRadAn=         4 AccDes= 0.00D+00
 Harris functional with IExCor=  402 and IRadAn=       4 diagonalized for initial guess.
 HarFok:  IExCor=  402 AccDes= 0.00D+00 IRadAn=         4 IDoV= 1 UseB2=F ITyADJ=14
 ICtDFT=  3500011 ScaDFX=  1.000000  1.000000  1.000000  1.000000
 FoFCou: FMM=F IPFlag=           0 FMFlag=      100000 FMFlg1=           0
         NFxFlg=           0 DoJE=T BraDBF=F KetDBF=T FulRan=T
         wScrn=  0.000000 ICntrl=     500 IOpCl=  0 I1Cent=   200000004 NGrid=           0
         NMat0=    1 NMatS0=      1 NMatT0=    0 NMatD0=    1 NMtDS0=    0 NMtDT0=    0
 Petite list used in FoFCou.
 Keep R1 ints in memory in symmetry-blocked form, NReq=6467888.
 Requested convergence on RMS density matrix=1.00D-08 within 128 cycles.
 Requested convergence on MAX density matrix=1.00D-06.
 Requested convergence on             energy=1.00D-06.
 No special actions if energy rises.
 Integral accuracy reduced to 1.0D-05 until final iterations.
 Initial convergence to 1.0D-05 achieved.  Increase integral accuracy.
 SCF Done:  E(RB3LYP) =  -157.219763763     A.U. after    9 cycles
            NFock=  9  Conv=0.98D-08     -V/T= 2.0106
 Calling FoFJK, ICntrl=      2127 FMM=F ISym2X=1 I1Cent= 0 IOpClX= 0 NMat=1 NMatS=1 NMatT=0.
 ***** Axes restored to original set *****
 -------------------------------------------------------------------
 Center     Atomic                   Forces (Hartrees/Bohr)
 Number     Number              X              Y              Z
 -------------------------------------------------------------------
      1        6           0.010497444   -0.000000003   -0.002493086
      2        6          -0.010497444    0.000000003    0.002493086
      3        1          -0.001491145   -0.000000008    0.000479137
      4        1           0.001491145    0.000000008   -0.000479137
      5        6          -0.010408782    0.000000017    0.005664362
      6        1           0.002051102   -0.000490808   -0.000619223
      7        1           0.000452550   -0.000000004   -0.000587835
      8        1           0.002051103    0.000490795   -0.000619205
      9        6           0.010408782   -0.000000017   -0.005664362
     10        1          -0.000452550    0.000000004    0.000587835
     11        1          -0.002051102    0.000490808    0.000619223
     12        1          -0.002051103   -0.000490795    0.000619205
 -------------------------------------------------------------------
 Cartesian Forces:  Max     0.010497444 RMS     0.003869436

 GradGradGradGradGradGradGradGradGradGradGradGradGradGradGradGradGradGrad
 Berny optimization.
 Using GEDIIS/GDIIS optimizer.
 FormGI is forming the generalized inverse of G from B-inverse, IUseBI=4.
 Internal  Forces:  Max     0.006998543 RMS     0.001853215
 Search for a local minimum.
 Step number   2 out of a maximum of   55
 All quantities printed in internal units (Hartrees-Bohrs-Radians)
 Mixed Optimization -- RFO/linear search
 Update second derivatives using D2CorX and points    1    2
 DE= -5.65D-03 DEPred=-5.29D-03 R= 1.07D+00
 TightC=F SS=  1.41D+00  RLast= 1.79D-01 DXNew= 5.0454D-01 5.3767D-01
 Trust test= 1.07D+00 RLast= 1.79D-01 DXMaxT set to 5.05D-01
 ITU=  1  0
 Use linear search instead of GDIIS.
     Eigenvalues ---    0.00237   0.00237   0.01498   0.01498   0.03279
     Eigenvalues ---    0.06935   0.06935   0.06979   0.06980   0.14425
     Eigenvalues ---    0.16000   0.16000   0.16000   0.16000   0.16000
     Eigenvalues ---    0.16000   0.16165   0.21138   0.22000   0.26886
     Eigenvalues ---    0.28519   0.37152   0.37230   0.37230   0.37230
     Eigenvalues ---    0.37230   0.37230   0.37230   0.39210   0.67548
 RFO step:  Lambda=-6.27475746D-04 EMin= 2.36824150D-03
 Quartic linear search produced a step of  0.14731.
 Iteration  1 RMS(Cart)=  0.00775447 RMS(Int)=  0.00010332
 Iteration  2 RMS(Cart)=  0.00008859 RMS(Int)=  0.00005666
 Iteration  3 RMS(Cart)=  0.00000001 RMS(Int)=  0.00005666
 ClnCor:  largest displacement from symmetrization is 8.44D-09 for atom     4.
 Variable       Old X    -DE/DX   Delta X   Delta X   Delta X     New X
                                 (Linear)    (Quad)   (Total)
    R1        2.52410  -0.00171   0.00715  -0.00726  -0.00011   2.52399
    R2        2.05854   0.00102   0.00538   0.00001   0.00539   2.06393
    R3        2.89108  -0.00700  -0.00281  -0.02648  -0.02929   2.86179
    R4        2.05854   0.00102   0.00538   0.00001   0.00539   2.06393
    R5        2.89108  -0.00700  -0.00281  -0.02648  -0.02929   2.86179
    R6        2.06794   0.00139   0.00677   0.00036   0.00713   2.07507
    R7        2.06588   0.00049   0.00646  -0.00224   0.00423   2.07011
    R8        2.06794   0.00139   0.00677   0.00036   0.00713   2.07507
    R9        2.06588   0.00049   0.00646  -0.00224   0.00423   2.07011
   R10        2.06794   0.00139   0.00677   0.00036   0.00713   2.07507
   R11        2.06794   0.00139   0.00677   0.00036   0.00713   2.07507
    A1        2.08709  -0.00217  -0.00493  -0.01090  -0.01583   2.07127
    A2        2.16569   0.00189   0.00665   0.00607   0.01272   2.17841
    A3        2.03040   0.00028  -0.00171   0.00482   0.00311   2.03351
    A4        2.08709  -0.00217  -0.00493  -0.01090  -0.01583   2.07127
    A5        2.16569   0.00189   0.00665   0.00607   0.01272   2.17841
    A6        2.03040   0.00028  -0.00171   0.00482   0.00311   2.03351
    A7        1.93275   0.00192   0.00326   0.01222   0.01536   1.94811
    A8        1.94002   0.00001   0.00433  -0.00279   0.00147   1.94148
    A9        1.93275   0.00192   0.00326   0.01222   0.01536   1.94811
   A10        1.88459  -0.00109  -0.00384  -0.00610  -0.01000   1.87459
   A11        1.88723  -0.00188  -0.00345  -0.01055  -0.01415   1.87308
   A12        1.88459  -0.00109  -0.00384  -0.00610  -0.01000   1.87459
   A13        1.94002   0.00001   0.00433  -0.00279   0.00147   1.94148
   A14        1.93275   0.00192   0.00326   0.01222   0.01536   1.94811
   A15        1.93275   0.00192   0.00326   0.01222   0.01536   1.94811
   A16        1.88459  -0.00109  -0.00384  -0.00610  -0.01000   1.87459
   A17        1.88459  -0.00109  -0.00384  -0.00610  -0.01000   1.87459
   A18        1.88723  -0.00188  -0.00345  -0.01055  -0.01415   1.87308
    D1        3.14159   0.00000   0.00000   0.00000   0.00000   3.14159
    D2        0.00000   0.00000   0.00000   0.00000   0.00000   0.00000
    D3        0.00000   0.00000   0.00000   0.00000   0.00000   0.00000
    D4        3.14159   0.00000   0.00000   0.00000   0.00000   3.14159
    D5        1.04671   0.00008  -0.00007   0.00140   0.00136   1.04807
    D6       -3.14159   0.00000   0.00000   0.00000   0.00000  -3.14159
    D7       -1.04671  -0.00008   0.00007  -0.00139  -0.00136  -1.04807
    D8       -2.09488   0.00008  -0.00007   0.00140   0.00136  -2.09352
    D9        0.00000   0.00000   0.00000   0.00000   0.00000   0.00000
   D10        2.09489  -0.00008   0.00007  -0.00139  -0.00136   2.09353
   D11        3.14159   0.00000   0.00000   0.00000   0.00000   3.14159
   D12       -1.04671  -0.00008   0.00007  -0.00140  -0.00136  -1.04807
   D13        1.04671   0.00008  -0.00007   0.00139   0.00136   1.04807
   D14        0.00000   0.00000   0.00000   0.00000   0.00000   0.00000
   D15        2.09488  -0.00008   0.00007  -0.00140  -0.00136   2.09352
   D16       -2.09489   0.00008  -0.00007   0.00139   0.00136  -2.09353
         Item               Value     Threshold  Converged?
 Maximum Force            0.006999     0.000450     NO 
 RMS     Force            0.001853     0.000300     NO 
 Maximum Displacement     0.014867     0.001800     NO 
 RMS     Displacement     0.007760     0.001200     NO 
 Predicted change in Energy=-3.890967D-04
 GradGradGradGradGradGradGradGradGradGradGradGradGradGradGradGradGradGrad

                          Input orientation:                          
 ---------------------------------------------------------------------
 Center     Atomic      Atomic             Coordinates (Angstroms)
 Number     Number       Type             X           Y           Z
 ---------------------------------------------------------------------
      1          6           0        0.031378    0.000000   -0.012081
      2          6           0       -0.031378    0.000000    1.322081
      3          1           0       -0.901175   -0.000002   -0.580598
      4          1           0        0.901175    0.000002    1.890598
      5          6           0        1.313968    0.000000   -0.817281
      6          1           0        1.927579   -0.884518   -0.600749
      7          1           0        1.107171    0.000002   -1.893040
      8          1           0        1.927581    0.884515   -0.600745
      9          6           0       -1.313968    0.000000    2.127281
     10          1           0       -1.107171   -0.000002    3.203040
     11          1           0       -1.927579    0.884518    1.910749
     12          1           0       -1.927581   -0.884515    1.910745
 ---------------------------------------------------------------------
                    Distance matrix (angstroms):
                    1          2          3          4          5
     1  C    0.000000
     2  C    1.335637   0.000000
     3  H    1.092185   2.092064   0.000000
     4  H    2.092064   1.092185   3.058639   0.000000
     5  C    1.514392   2.527217   2.227752   2.739162   0.000000
     6  H    2.173586   2.883949   2.963886   2.835963   1.098078
     7  H    2.166873   3.410762   2.399158   3.789241   1.095455
     8  H    2.173586   2.883946   2.963889   2.835959   1.098078
     9  C    2.527217   1.514392   2.739162   2.227752   3.946707
    10  H    3.410762   2.166873   3.789241   2.399158   4.693069
    11  H    2.883949   2.173586   2.835963   2.963886   4.328065
    12  H    2.883946   2.173586   2.835959   2.963889   4.328064
                    6          7          8          9         10
     6  H    0.000000
     7  H    1.767897   0.000000
     8  H    1.769032   1.767898   0.000000
     9  C    4.328065   4.693069   4.328064   0.000000
    10  H    4.945795   5.556379   4.945793   1.095455   0.000000
    11  H    4.929437   4.945795   4.601072   1.098078   1.767897
    12  H    4.601072   4.945793   4.929434   1.098078   1.767898
                   11         12
    11  H    0.000000
    12  H    1.769032   0.000000
 Stoichiometry    C4H8
 Framework group  CI[X(C4H8)]
 Deg. of freedom    15
 Full point group                 CI      NOp   2
 Largest Abelian subgroup         CI      NOp   2
 Largest concise Abelian subgroup CI      NOp   2
                         Standard orientation:                         
 ---------------------------------------------------------------------
 Center     Atomic      Atomic             Coordinates (Angstroms)
 Number     Number       Type             X           Y           Z
 ---------------------------------------------------------------------
      1          6           0        0.031378    0.000000   -0.667081
      2          6           0       -0.031378    0.000000    0.667081
      3          1           0       -0.901175   -0.000002   -1.235598
      4          1           0        0.901175    0.000002    1.235598
      5          6           0        1.313968    0.000000   -1.472281
      6          1           0        1.927579   -0.884518   -1.255749
      7          1           0        1.107171    0.000002   -2.548040
      8          1           0        1.927581    0.884515   -1.255745
      9          6           0       -1.313968    0.000000    1.472281
     10          1           0       -1.107171   -0.000002    2.548040
     11          1           0       -1.927579    0.884518    1.255749
     12          1           0       -1.927581   -0.884515    1.255745
 ---------------------------------------------------------------------
 Rotational constants (GHZ):     34.4852650      3.6775492      3.4669671
 Standard basis: 6-31G(d) (6D, 7F)
 There are    38 symmetry adapted cartesian basis functions of AG  symmetry.
 There are    38 symmetry adapted cartesian basis functions of AU  symmetry.
 There are    38 symmetry adapted basis functions of AG  symmetry.
 There are    38 symmetry adapted basis functions of AU  symmetry.
    76 basis functions,   144 primitive gaussians,    76 cartesian basis functions
    16 alpha electrons       16 beta electrons
       nuclear repulsion energy       115.1503411779 Hartrees.
 NAtoms=   12 NActive=   12 NUniq=    6 SFac= 4.00D+00 NAtFMM=   60 NAOKFM=F Big=F
 Integral buffers will be    131072 words long.
 Raffenetti 2 integral format.
 Two-electron integral symmetry is turned on.
 One-electron integrals computed using PRISM.
 NBasis=    76 RedAO= T EigKep=  3.16D-03  NBF=    38    38
 NBsUse=    76 1.00D-06 EigRej= -1.00D+00 NBFU=    38    38
 Initial guess from the checkpoint file:  "C:\G09W\mine\substituent\mini_0_pp.chk"
 B after Tr=     0.000000    0.000000    0.000000
         Rot=    1.000000    0.000000    0.000327    0.000000 Ang=   0.04 deg.
 Initial guess orbital symmetries:
       Occupied  (AG) (AU) (AG) (AU) (AG) (AU) (AG) (AU) (AG) (AU)
                 (AU) (AG) (AU) (AG) (AG) (AU)
       Virtual   (AG) (AG) (AG) (AG) (AG) (AG) (AG) (AG) (AG) (AG)
                 (AG) (AG) (AG) (AG) (AG) (AG) (AG) (AG) (AG) (AG)
                 (AG) (AG) (AG) (AG) (AG) (AG) (AG) (AG) (AG) (AG)
                 (AU) (AU) (AU) (AU) (AU) (AU) (AU) (AU) (AU) (AU)
                 (AU) (AU) (AU) (AU) (AU) (AU) (AU) (AU) (AU) (AU)
                 (AU) (AU) (AU) (AU) (AU) (AU) (AU) (AU) (AU) (AU)
 Keep R1 ints in memory in symmetry-blocked form, NReq=6467888.
 Requested convergence on RMS density matrix=1.00D-08 within 128 cycles.
 Requested convergence on MAX density matrix=1.00D-06.
 Requested convergence on             energy=1.00D-06.
 No special actions if energy rises.
 SCF Done:  E(RB3LYP) =  -157.220204402     A.U. after    8 cycles
            NFock=  8  Conv=0.29D-08     -V/T= 2.0106
 Calling FoFJK, ICntrl=      2127 FMM=F ISym2X=1 I1Cent= 0 IOpClX= 0 NMat=1 NMatS=1 NMatT=0.
 ***** Axes restored to original set *****
 -------------------------------------------------------------------
 Center     Atomic                   Forces (Hartrees/Bohr)
 Number     Number              X              Y              Z
 -------------------------------------------------------------------
      1        6           0.000841542   -0.000000009   -0.000141900
      2        6          -0.000841542    0.000000009    0.000141900
      3        1           0.000267372   -0.000000016    0.000415073
      4        1          -0.000267372    0.000000016   -0.000415073
      5        6          -0.000897474    0.000000018    0.000139526
      6        1          -0.000007723    0.000627211   -0.000267479
      7        1           0.000383744    0.000000004    0.000628516
      8        1          -0.000007719   -0.000627231   -0.000267468
      9        6           0.000897474   -0.000000018   -0.000139526
     10        1          -0.000383744   -0.000000004   -0.000628516
     11        1           0.000007723   -0.000627211    0.000267479
     12        1           0.000007719    0.000627231    0.000267468
 -------------------------------------------------------------------
 Cartesian Forces:  Max     0.000897474 RMS     0.000426180

 GradGradGradGradGradGradGradGradGradGradGradGradGradGradGradGradGradGrad
 Berny optimization.
 Using GEDIIS/GDIIS optimizer.
 FormGI is forming the generalized inverse of G from B-inverse, IUseBI=4.
 Internal  Forces:  Max     0.000689760 RMS     0.000349007
 Search for a local minimum.
 Step number   3 out of a maximum of   55
 All quantities printed in internal units (Hartrees-Bohrs-Radians)
 Mixed Optimization -- En-DIIS/RFO-DIIS
 Update second derivatives using D2CorX and points    1    2    3
 DE= -4.41D-04 DEPred=-3.89D-04 R= 1.13D+00
 TightC=F SS=  1.41D+00  RLast= 6.80D-02 DXNew= 8.4853D-01 2.0393D-01
 Trust test= 1.13D+00 RLast= 6.80D-02 DXMaxT set to 5.05D-01
 ITU=  1  1  0
 Use linear search instead of GDIIS.
     Eigenvalues ---    0.00237   0.00237   0.01483   0.01483   0.03279
     Eigenvalues ---    0.06810   0.06827   0.06854   0.06854   0.12170
     Eigenvalues ---    0.16000   0.16000   0.16000   0.16000   0.16000
     Eigenvalues ---    0.16000   0.16213   0.20863   0.22000   0.27841
     Eigenvalues ---    0.28519   0.37187   0.37230   0.37230   0.37230
     Eigenvalues ---    0.37230   0.37230   0.37230   0.40751   0.67674
 RFO step:  Lambda=-1.63374603D-05 EMin= 2.36824150D-03
 Quartic linear search produced a step of  0.10253.
 Iteration  1 RMS(Cart)=  0.00201685 RMS(Int)=  0.00000642
 Iteration  2 RMS(Cart)=  0.00000463 RMS(Int)=  0.00000508
 Iteration  3 RMS(Cart)=  0.00000000 RMS(Int)=  0.00000508
 ClnCor:  largest displacement from symmetrization is 1.32D-08 for atom     4.
 Variable       Old X    -DE/DX   Delta X   Delta X   Delta X     New X
                                 (Linear)    (Quad)   (Total)
    R1        2.52399  -0.00048  -0.00001  -0.00032  -0.00033   2.52366
    R2        2.06393  -0.00044   0.00055  -0.00140  -0.00085   2.06308
    R3        2.86179  -0.00057  -0.00300   0.00022  -0.00279   2.85900
    R4        2.06393  -0.00044   0.00055  -0.00140  -0.00085   2.06308
    R5        2.86179  -0.00057  -0.00300   0.00022  -0.00279   2.85900
    R6        2.07507  -0.00056   0.00073  -0.00180  -0.00107   2.07400
    R7        2.07011  -0.00069   0.00043  -0.00194  -0.00151   2.06860
    R8        2.07507  -0.00056   0.00073  -0.00180  -0.00107   2.07400
    R9        2.07011  -0.00069   0.00043  -0.00194  -0.00151   2.06860
   R10        2.07507  -0.00056   0.00073  -0.00180  -0.00107   2.07400
   R11        2.07507  -0.00056   0.00073  -0.00180  -0.00107   2.07400
    A1        2.07127  -0.00040  -0.00162  -0.00135  -0.00297   2.06830
    A2        2.17841   0.00036   0.00130   0.00113   0.00244   2.18084
    A3        2.03351   0.00004   0.00032   0.00021   0.00053   2.03405
    A4        2.07127  -0.00040  -0.00162  -0.00135  -0.00297   2.06830
    A5        2.17841   0.00036   0.00130   0.00113   0.00244   2.18084
    A6        2.03351   0.00004   0.00032   0.00021   0.00053   2.03405
    A7        1.94811   0.00037   0.00158   0.00122   0.00279   1.95090
    A8        1.94148   0.00023   0.00015   0.00202   0.00216   1.94365
    A9        1.94811   0.00037   0.00158   0.00122   0.00279   1.95090
   A10        1.87459  -0.00029  -0.00103  -0.00109  -0.00212   1.87246
   A11        1.87308  -0.00046  -0.00145  -0.00259  -0.00406   1.86902
   A12        1.87459  -0.00029  -0.00103  -0.00109  -0.00212   1.87246
   A13        1.94148   0.00023   0.00015   0.00202   0.00216   1.94365
   A14        1.94811   0.00037   0.00158   0.00122   0.00279   1.95090
   A15        1.94811   0.00037   0.00158   0.00122   0.00279   1.95090
   A16        1.87459  -0.00029  -0.00103  -0.00109  -0.00212   1.87246
   A17        1.87459  -0.00029  -0.00103  -0.00109  -0.00212   1.87246
   A18        1.87308  -0.00046  -0.00145  -0.00259  -0.00406   1.86902
    D1        3.14159   0.00000   0.00000   0.00000   0.00000   3.14159
    D2        0.00000   0.00000   0.00000   0.00000   0.00000   0.00000
    D3        0.00000   0.00000   0.00000   0.00000   0.00000   0.00000
    D4        3.14159   0.00000   0.00000   0.00000   0.00000   3.14159
    D5        1.04807  -0.00004   0.00014  -0.00081  -0.00067   1.04741
    D6       -3.14159   0.00000   0.00000   0.00000   0.00000  -3.14159
    D7       -1.04807   0.00004  -0.00014   0.00082   0.00068  -1.04739
    D8       -2.09352  -0.00004   0.00014  -0.00081  -0.00067  -2.09419
    D9        0.00000   0.00000   0.00000   0.00000   0.00000   0.00001
   D10        2.09353   0.00004  -0.00014   0.00082   0.00068   2.09420
   D11        3.14159   0.00000   0.00000   0.00000   0.00000   3.14159
   D12       -1.04807   0.00004  -0.00014   0.00081   0.00067  -1.04741
   D13        1.04807  -0.00004   0.00014  -0.00082  -0.00068   1.04739
   D14        0.00000   0.00000   0.00000   0.00000   0.00000  -0.00001
   D15        2.09352   0.00004  -0.00014   0.00081   0.00067   2.09419
   D16       -2.09353  -0.00004   0.00014  -0.00082  -0.00068  -2.09420
         Item               Value     Threshold  Converged?
 Maximum Force            0.000690     0.000450     NO 
 RMS     Force            0.000349     0.000300     NO 
 Maximum Displacement     0.003650     0.001800     NO 
 RMS     Displacement     0.002016     0.001200     NO 
 Predicted change in Energy=-1.224404D-05
 GradGradGradGradGradGradGradGradGradGradGradGradGradGradGradGradGradGrad

                          Input orientation:                          
 ---------------------------------------------------------------------
 Center     Atomic      Atomic             Coordinates (Angstroms)
 Number     Number       Type             X           Y           Z
 ---------------------------------------------------------------------
      1          6           0        0.032557   -0.000001   -0.011938
      2          6           0       -0.032557    0.000001    1.321938
      3          1           0       -0.900293   -0.000005   -0.579106
      4          1           0        0.900293    0.000005    1.889106
      5          6           0        1.313364    0.000000   -0.817204
      6          1           0        1.929223   -0.882740   -0.602680
      7          1           0        1.108330    0.000004   -1.892489
      8          1           0        1.929226    0.882736   -0.602673
      9          6           0       -1.313364    0.000000    2.127204
     10          1           0       -1.108330   -0.000004    3.202489
     11          1           0       -1.929223    0.882740    1.912680
     12          1           0       -1.929226   -0.882736    1.912673
 ---------------------------------------------------------------------
                    Distance matrix (angstroms):
                    1          2          3          4          5
     1  C    0.000000
     2  C    1.335464   0.000000
     3  H    1.091736   2.089720   0.000000
     4  H    2.089720   1.091736   3.055188   0.000000
     5  C    1.512918   2.527337   2.226425   2.737652   0.000000
     6  H    2.173832   2.886515   2.964108   2.836712   1.097512
     7  H    2.166509   3.410889   2.399905   3.787313   1.094659
     8  H    2.173832   2.886510   2.964113   2.836702   1.097512
     9  C    2.527337   1.512918   2.737652   2.226425   3.945787
    10  H    3.410889   2.166509   3.787313   2.399905   4.692817
    11  H    2.886515   2.173832   2.836712   2.964108   4.329650
    12  H    2.886510   2.173832   2.836702   2.964113   4.329647
                    6          7          8          9         10
     6  H    0.000000
     7  H    1.765421   0.000000
     8  H    1.765476   1.765421   0.000000
     9  C    4.329650   4.692817   4.329647   0.000000
    10  H    4.948259   5.556293   4.948256   1.094659   0.000000
    11  H    4.932704   4.948259   4.605935   1.097512   1.765421
    12  H    4.605935   4.948256   4.932698   1.097512   1.765421
                   11         12
    11  H    0.000000
    12  H    1.765476   0.000000
 Stoichiometry    C4H8
 Framework group  CI[X(C4H8)]
 Deg. of freedom    15
 Full point group                 CI      NOp   2
 Largest Abelian subgroup         CI      NOp   2
 Largest concise Abelian subgroup CI      NOp   2
                         Standard orientation:                         
 ---------------------------------------------------------------------
 Center     Atomic      Atomic             Coordinates (Angstroms)
 Number     Number       Type             X           Y           Z
 ---------------------------------------------------------------------
      1          6           0        0.032557   -0.000001   -0.666938
      2          6           0       -0.032557    0.000001    0.666938
      3          1           0       -0.900293   -0.000005   -1.234106
      4          1           0        0.900293    0.000005    1.234106
      5          6           0        1.313364    0.000000   -1.472204
      6          1           0        1.929223   -0.882740   -1.257680
      7          1           0        1.108330    0.000004   -2.547489
      8          1           0        1.929226    0.882736   -1.257673
      9          6           0       -1.313364    0.000000    1.472204
     10          1           0       -1.108330   -0.000004    2.547489
     11          1           0       -1.929223    0.882740    1.257680
     12          1           0       -1.929226   -0.882736    1.257673
 ---------------------------------------------------------------------
 Rotational constants (GHZ):     34.5955446      3.6773072      3.4672606
 Standard basis: 6-31G(d) (6D, 7F)
 There are    38 symmetry adapted cartesian basis functions of AG  symmetry.
 There are    38 symmetry adapted cartesian basis functions of AU  symmetry.
 There are    38 symmetry adapted basis functions of AG  symmetry.
 There are    38 symmetry adapted basis functions of AU  symmetry.
    76 basis functions,   144 primitive gaussians,    76 cartesian basis functions
    16 alpha electrons       16 beta electrons
       nuclear repulsion energy       115.1931686659 Hartrees.
 NAtoms=   12 NActive=   12 NUniq=    6 SFac= 4.00D+00 NAtFMM=   60 NAOKFM=F Big=F
 Integral buffers will be    131072 words long.
 Raffenetti 2 integral format.
 Two-electron integral symmetry is turned on.
 One-electron integrals computed using PRISM.
 NBasis=    76 RedAO= T EigKep=  3.15D-03  NBF=    38    38
 NBsUse=    76 1.00D-06 EigRej= -1.00D+00 NBFU=    38    38
 Initial guess from the checkpoint file:  "C:\G09W\mine\substituent\mini_0_pp.chk"
 B after Tr=     0.000000    0.000000    0.000000
         Rot=    1.000000    0.000000    0.000000    0.000000 Ang=   0.00 deg.
 Initial guess orbital symmetries:
       Occupied  (AG) (AU) (AG) (AU) (AG) (AU) (AG) (AU) (AG) (AU)
                 (AU) (AG) (AU) (AG) (AG) (AU)
       Virtual   (AG) (AG) (AG) (AG) (AG) (AG) (AG) (AG) (AG) (AG)
                 (AG) (AG) (AG) (AG) (AG) (AG) (AG) (AG) (AG) (AG)
                 (AG) (AG) (AG) (AG) (AG) (AG) (AG) (AG) (AG) (AG)
                 (AU) (AU) (AU) (AU) (AU) (AU) (AU) (AU) (AU) (AU)
                 (AU) (AU) (AU) (AU) (AU) (AU) (AU) (AU) (AU) (AU)
                 (AU) (AU) (AU) (AU) (AU) (AU) (AU) (AU) (AU) (AU)
 Keep R1 ints in memory in symmetry-blocked form, NReq=6467888.
 Requested convergence on RMS density matrix=1.00D-08 within 128 cycles.
 Requested convergence on MAX density matrix=1.00D-06.
 Requested convergence on             energy=1.00D-06.
 No special actions if energy rises.
 SCF Done:  E(RB3LYP) =  -157.220217024     A.U. after    7 cycles
            NFock=  7  Conv=0.42D-08     -V/T= 2.0105
 Calling FoFJK, ICntrl=      2127 FMM=F ISym2X=1 I1Cent= 0 IOpClX= 0 NMat=1 NMatS=1 NMatT=0.
 ***** Axes restored to original set *****
 -------------------------------------------------------------------
 Center     Atomic                   Forces (Hartrees/Bohr)
 Number     Number              X              Y              Z
 -------------------------------------------------------------------
      1        6          -0.000077816   -0.000000013    0.000010581
      2        6           0.000077816    0.000000013   -0.000010581
      3        1           0.000076015   -0.000000035    0.000018977
      4        1          -0.000076015    0.000000035   -0.000018977
      5        6           0.000003063    0.000000033   -0.000025822
      6        1          -0.000042716    0.000088199   -0.000006913
      7        1          -0.000008450    0.000000008    0.000142486
      8        1          -0.000042706   -0.000088238   -0.000006879
      9        6          -0.000003063   -0.000000033    0.000025822
     10        1           0.000008450   -0.000000008   -0.000142486
     11        1           0.000042716   -0.000088199    0.000006913
     12        1           0.000042706    0.000088238    0.000006879
 -------------------------------------------------------------------
 Cartesian Forces:  Max     0.000142486 RMS     0.000054090

 GradGradGradGradGradGradGradGradGradGradGradGradGradGradGradGradGradGrad
 Berny optimization.
 Using GEDIIS/GDIIS optimizer.
 FormGI is forming the generalized inverse of G from B-inverse, IUseBI=4.
 Internal  Forces:  Max     0.000138499 RMS     0.000059491
 Search for a local minimum.
 Step number   4 out of a maximum of   55
 All quantities printed in internal units (Hartrees-Bohrs-Radians)
 Mixed Optimization -- En-DIIS/RFO-DIIS
 Swapping is turned off.
 Update second derivatives using D2CorX and points    1    2    3    4
 DE= -1.26D-05 DEPred=-1.22D-05 R= 1.03D+00
 TightC=F SS=  1.41D+00  RLast= 1.23D-02 DXNew= 8.4853D-01 3.6903D-02
 Trust test= 1.03D+00 RLast= 1.23D-02 DXMaxT set to 5.05D-01
 ITU=  1  1  1  0
     Eigenvalues ---    0.00237   0.00237   0.01480   0.01480   0.03279
     Eigenvalues ---    0.06781   0.06781   0.06823   0.06823   0.12893
     Eigenvalues ---    0.16000   0.16000   0.16000   0.16000   0.16000
     Eigenvalues ---    0.16052   0.16339   0.20989   0.22000   0.28002
     Eigenvalues ---    0.28519   0.36628   0.37185   0.37230   0.37230
     Eigenvalues ---    0.37230   0.37230   0.37230   0.37234   0.66997
 En-DIIS/RFO-DIIS IScMMF=        0 using points:     4    3
 RFO step:  Lambda=-2.66163011D-07.
 DidBck=F Rises=F RFO-DIIS coefs:    1.04425   -0.04425
 Iteration  1 RMS(Cart)=  0.00035532 RMS(Int)=  0.00000007
 Iteration  2 RMS(Cart)=  0.00000002 RMS(Int)=  0.00000007
 ClnCor:  largest displacement from symmetrization is 3.22D-10 for atom     4.
 Variable       Old X    -DE/DX   Delta X   Delta X   Delta X     New X
                                 (Linear)    (Quad)   (Total)
    R1        2.52366  -0.00014  -0.00001  -0.00015  -0.00017   2.52349
    R2        2.06308  -0.00007  -0.00004  -0.00016  -0.00020   2.06288
    R3        2.85900  -0.00013  -0.00012  -0.00030  -0.00042   2.85858
    R4        2.06308  -0.00007  -0.00004  -0.00016  -0.00020   2.06288
    R5        2.85900  -0.00013  -0.00012  -0.00030  -0.00042   2.85858
    R6        2.07400  -0.00010  -0.00005  -0.00021  -0.00026   2.07374
    R7        2.06860  -0.00014  -0.00007  -0.00031  -0.00037   2.06823
    R8        2.07400  -0.00010  -0.00005  -0.00021  -0.00026   2.07374
    R9        2.06860  -0.00014  -0.00007  -0.00031  -0.00037   2.06823
   R10        2.07400  -0.00010  -0.00005  -0.00021  -0.00026   2.07374
   R11        2.07400  -0.00010  -0.00005  -0.00021  -0.00026   2.07374
    A1        2.06830   0.00005  -0.00013   0.00039   0.00026   2.06856
    A2        2.18084  -0.00006   0.00011  -0.00033  -0.00022   2.18062
    A3        2.03405   0.00000   0.00002  -0.00007  -0.00005   2.03400
    A4        2.06830   0.00005  -0.00013   0.00039   0.00026   2.06856
    A5        2.18084  -0.00006   0.00011  -0.00033  -0.00022   2.18062
    A6        2.03405   0.00000   0.00002  -0.00007  -0.00005   2.03400
    A7        1.95090   0.00001   0.00012  -0.00006   0.00006   1.95096
    A8        1.94365  -0.00005   0.00010  -0.00031  -0.00022   1.94343
    A9        1.95090   0.00001   0.00012  -0.00006   0.00006   1.95096
   A10        1.87246   0.00002  -0.00009   0.00023   0.00014   1.87260
   A11        1.86902  -0.00002  -0.00018   0.00000  -0.00018   1.86884
   A12        1.87246   0.00002  -0.00009   0.00023   0.00014   1.87260
   A13        1.94365  -0.00005   0.00010  -0.00031  -0.00022   1.94343
   A14        1.95090   0.00001   0.00012  -0.00006   0.00006   1.95096
   A15        1.95090   0.00001   0.00012  -0.00006   0.00006   1.95096
   A16        1.87246   0.00002  -0.00009   0.00023   0.00014   1.87260
   A17        1.87246   0.00002  -0.00009   0.00023   0.00014   1.87260
   A18        1.86902  -0.00002  -0.00018   0.00000  -0.00018   1.86884
    D1        3.14159   0.00000   0.00000   0.00000   0.00000   3.14159
    D2        0.00000   0.00000   0.00000   0.00000   0.00000   0.00000
    D3        0.00000   0.00000   0.00000   0.00000   0.00000   0.00000
    D4        3.14159   0.00000   0.00000   0.00000   0.00000   3.14159
    D5        1.04741   0.00000  -0.00003  -0.00003  -0.00006   1.04734
    D6       -3.14159   0.00000   0.00000   0.00001   0.00001  -3.14158
    D7       -1.04739   0.00000   0.00003   0.00005   0.00008  -1.04731
    D8       -2.09419   0.00000  -0.00003  -0.00003  -0.00006  -2.09425
    D9        0.00001   0.00000   0.00000   0.00001   0.00001   0.00002
   D10        2.09420   0.00000   0.00003   0.00005   0.00008   2.09428
   D11        3.14159   0.00000   0.00000  -0.00001  -0.00001   3.14158
   D12       -1.04741   0.00000   0.00003   0.00003   0.00006  -1.04734
   D13        1.04739   0.00000  -0.00003  -0.00005  -0.00008   1.04731
   D14       -0.00001   0.00000   0.00000  -0.00001  -0.00001  -0.00002
   D15        2.09419   0.00000   0.00003   0.00003   0.00006   2.09425
   D16       -2.09420   0.00000  -0.00003  -0.00005  -0.00008  -2.09428
         Item               Value     Threshold  Converged?
 Maximum Force            0.000138     0.000450     YES
 RMS     Force            0.000059     0.000300     YES
 Maximum Displacement     0.000885     0.001800     YES
 RMS     Displacement     0.000355     0.001200     YES
 Predicted change in Energy=-2.301778D-07
 Optimization completed.
    -- Stationary point found.
                           ----------------------------
                           !   Optimized Parameters   !
                           ! (Angstroms and Degrees)  !
 --------------------------                            --------------------------
 ! Name  Definition              Value          Derivative Info.                !
 --------------------------------------------------------------------------------
 ! R1    R(1,2)                  1.3355         -DE/DX =   -0.0001              !
 ! R2    R(1,3)                  1.0917         -DE/DX =   -0.0001              !
 ! R3    R(1,5)                  1.5129         -DE/DX =   -0.0001              !
 ! R4    R(2,4)                  1.0917         -DE/DX =   -0.0001              !
 ! R5    R(2,9)                  1.5129         -DE/DX =   -0.0001              !
 ! R6    R(5,6)                  1.0975         -DE/DX =   -0.0001              !
 ! R7    R(5,7)                  1.0947         -DE/DX =   -0.0001              !
 ! R8    R(5,8)                  1.0975         -DE/DX =   -0.0001              !
 ! R9    R(9,10)                 1.0947         -DE/DX =   -0.0001              !
 ! R10   R(9,11)                 1.0975         -DE/DX =   -0.0001              !
 ! R11   R(9,12)                 1.0975         -DE/DX =   -0.0001              !
 ! A1    A(2,1,3)              118.5047         -DE/DX =    0.0001              !
 ! A2    A(2,1,5)              124.953          -DE/DX =   -0.0001              !
 ! A3    A(3,1,5)              116.5423         -DE/DX =    0.0                 !
 ! A4    A(1,2,4)              118.5047         -DE/DX =    0.0001              !
 ! A5    A(1,2,9)              124.953          -DE/DX =   -0.0001              !
 ! A6    A(4,2,9)              116.5423         -DE/DX =    0.0                 !
 ! A7    A(1,5,6)              111.7781         -DE/DX =    0.0                 !
 ! A8    A(1,5,7)              111.3628         -DE/DX =    0.0                 !
 ! A9    A(1,5,8)              111.7781         -DE/DX =    0.0                 !
 ! A10   A(6,5,7)              107.2842         -DE/DX =    0.0                 !
 ! A11   A(6,5,8)              107.087          -DE/DX =    0.0                 !
 ! A12   A(7,5,8)              107.2842         -DE/DX =    0.0                 !
 ! A13   A(2,9,10)             111.3628         -DE/DX =    0.0                 !
 ! A14   A(2,9,11)             111.7781         -DE/DX =    0.0                 !
 ! A15   A(2,9,12)             111.7781         -DE/DX =    0.0                 !
 ! A16   A(10,9,11)            107.2842         -DE/DX =    0.0                 !
 ! A17   A(10,9,12)            107.2842         -DE/DX =    0.0                 !
 ! A18   A(11,9,12)            107.087          -DE/DX =    0.0                 !
 ! D1    D(3,1,2,4)            180.0            -DE/DX =    0.0                 !
 ! D2    D(3,1,2,9)              0.0            -DE/DX =    0.0                 !
 ! D3    D(5,1,2,4)              0.0            -DE/DX =    0.0                 !
 ! D4    D(5,1,2,9)            180.0            -DE/DX =    0.0                 !
 ! D5    D(2,1,5,6)             60.0119         -DE/DX =    0.0                 !
 ! D6    D(2,1,5,7)           -179.9996         -DE/DX =    0.0                 !
 ! D7    D(2,1,5,8)            -60.0111         -DE/DX =    0.0                 !
 ! D8    D(3,1,5,6)           -119.9881         -DE/DX =    0.0                 !
 ! D9    D(3,1,5,7)              0.0004         -DE/DX =    0.0                 !
 ! D10   D(3,1,5,8)            119.9889         -DE/DX =    0.0                 !
 ! D11   D(1,2,9,10)           179.9996         -DE/DX =    0.0                 !
 ! D12   D(1,2,9,11)           -60.0119         -DE/DX =    0.0                 !
 ! D13   D(1,2,9,12)            60.0111         -DE/DX =    0.0                 !
 ! D14   D(4,2,9,10)            -0.0004         -DE/DX =    0.0                 !
 ! D15   D(4,2,9,11)           119.9881         -DE/DX =    0.0                 !
 ! D16   D(4,2,9,12)          -119.9889         -DE/DX =    0.0                 !
 --------------------------------------------------------------------------------
 GradGradGradGradGradGradGradGradGradGradGradGradGradGradGradGradGradGrad

                          Input orientation:                          
 ---------------------------------------------------------------------
 Center     Atomic      Atomic             Coordinates (Angstroms)
 Number     Number       Type             X           Y           Z
 ---------------------------------------------------------------------
      1          6           0        0.032557   -0.000001   -0.011938
      2          6           0       -0.032557    0.000001    1.321938
      3          1           0       -0.900293   -0.000005   -0.579106
      4          1           0        0.900293    0.000005    1.889106
      5          6           0        1.313364    0.000000   -0.817204
      6          1           0        1.929223   -0.882740   -0.602680
      7          1           0        1.108330    0.000004   -1.892489
      8          1           0        1.929226    0.882736   -0.602673
      9          6           0       -1.313364    0.000000    2.127204
     10          1           0       -1.108330   -0.000004    3.202489
     11          1           0       -1.929223    0.882740    1.912680
     12          1           0       -1.929226   -0.882736    1.912673
 ---------------------------------------------------------------------
                    Distance matrix (angstroms):
                    1          2          3          4          5
     1  C    0.000000
     2  C    1.335464   0.000000
     3  H    1.091736   2.089720   0.000000
     4  H    2.089720   1.091736   3.055188   0.000000
     5  C    1.512918   2.527337   2.226425   2.737652   0.000000
     6  H    2.173832   2.886515   2.964108   2.836712   1.097512
     7  H    2.166509   3.410889   2.399905   3.787313   1.094659
     8  H    2.173832   2.886510   2.964113   2.836702   1.097512
     9  C    2.527337   1.512918   2.737652   2.226425   3.945787
    10  H    3.410889   2.166509   3.787313   2.399905   4.692817
    11  H    2.886515   2.173832   2.836712   2.964108   4.329650
    12  H    2.886510   2.173832   2.836702   2.964113   4.329647
                    6          7          8          9         10
     6  H    0.000000
     7  H    1.765421   0.000000
     8  H    1.765476   1.765421   0.000000
     9  C    4.329650   4.692817   4.329647   0.000000
    10  H    4.948259   5.556293   4.948256   1.094659   0.000000
    11  H    4.932704   4.948259   4.605935   1.097512   1.765421
    12  H    4.605935   4.948256   4.932698   1.097512   1.765421
                   11         12
    11  H    0.000000
    12  H    1.765476   0.000000
 Stoichiometry    C4H8
 Framework group  CI[X(C4H8)]
 Deg. of freedom    15
 Full point group                 CI      NOp   2
 Largest Abelian subgroup         CI      NOp   2
 Largest concise Abelian subgroup CI      NOp   2
                         Standard orientation:                         
 ---------------------------------------------------------------------
 Center     Atomic      Atomic             Coordinates (Angstroms)
 Number     Number       Type             X           Y           Z
 ---------------------------------------------------------------------
      1          6           0        0.032557   -0.000001   -0.666938
      2          6           0       -0.032557    0.000001    0.666938
      3          1           0       -0.900293   -0.000005   -1.234106
      4          1           0        0.900293    0.000005    1.234106
      5          6           0        1.313364    0.000000   -1.472204
      6          1           0        1.929223   -0.882740   -1.257680
      7          1           0        1.108330    0.000004   -2.547489
      8          1           0        1.929226    0.882736   -1.257673
      9          6           0       -1.313364    0.000000    1.472204
     10          1           0       -1.108330   -0.000004    2.547489
     11          1           0       -1.929223    0.882740    1.257680
     12          1           0       -1.929226   -0.882736    1.257673
 ---------------------------------------------------------------------
 Rotational constants (GHZ):     34.5955446      3.6773072      3.4672606

 **********************************************************************

            Population analysis using the SCF density.

 **********************************************************************

 Orbital symmetries:
       Occupied  (AG) (AU) (AG) (AU) (AG) (AU) (AG) (AU) (AU) (AG)
                 (AU) (AG) (AU) (AG) (AG) (AU)
       Virtual   (AG) (AG) (AU) (AU) (AG) (AU) (AU) (AG) (AG) (AU)
                 (AG) (AU) (AG) (AU) (AU) (AU) (AG) (AG) (AU) (AG)
                 (AG) (AU) (AU) (AG) (AG) (AU) (AG) (AU) (AG) (AU)
                 (AU) (AG) (AU) (AG) (AG) (AU) (AG) (AU) (AU) (AG)
                 (AU) (AU) (AG) (AG) (AU) (AG) (AU) (AG) (AG) (AU)
                 (AU) (AG) (AG) (AU) (AU) (AG) (AG) (AU) (AG) (AU)
 The electronic state is 1-AG.
 Alpha  occ. eigenvalues --  -10.17652 -10.17610 -10.17604 -10.17560  -0.78591
 Alpha  occ. eigenvalues --   -0.71891  -0.63715  -0.53816  -0.43427  -0.43410
 Alpha  occ. eigenvalues --   -0.41024  -0.39637  -0.37124  -0.35268  -0.33067
 Alpha  occ. eigenvalues --   -0.23160
 Alpha virt. eigenvalues --    0.02307   0.12056   0.12126   0.13125   0.14362
 Alpha virt. eigenvalues --    0.17487   0.19658   0.21337   0.21723   0.24383
 Alpha virt. eigenvalues --    0.30936   0.36609   0.49521   0.51567   0.54977
 Alpha virt. eigenvalues --    0.58208   0.58366   0.59460   0.66651   0.70154
 Alpha virt. eigenvalues --    0.73235   0.77554   0.79259   0.80339   0.87773
 Alpha virt. eigenvalues --    0.87803   0.88915   0.89687   0.91827   0.92313
 Alpha virt. eigenvalues --    0.95785   0.96464   1.14752   1.20824   1.23473
 Alpha virt. eigenvalues --    1.42706   1.43476   1.43602   1.59083   1.80215
 Alpha virt. eigenvalues --    1.80413   1.89116   1.89933   2.01110   2.13531
 Alpha virt. eigenvalues --    2.14966   2.15927   2.15978   2.17358   2.33805
 Alpha virt. eigenvalues --    2.37177   2.40274   2.53242   2.65028   2.81236
 Alpha virt. eigenvalues --    2.93822   4.11673   4.17470   4.30790   4.46222
          Condensed to atoms (all electrons):
               1          2          3          4          5          6
     1  C    4.837131   0.706310   0.372037  -0.050444   0.365265  -0.032299
     2  C    0.706310   4.837131  -0.050444   0.372037  -0.032870  -0.007392
     3  H    0.372037  -0.050444   0.613945   0.007044  -0.057691   0.003680
     4  H   -0.050444   0.372037   0.007044   0.613945  -0.009377   0.002115
     5  C    0.365265  -0.032870  -0.057691  -0.009377   5.097678   0.373878
     6  H   -0.032299  -0.007392   0.003680   0.002115   0.373878   0.562335
     7  H   -0.023098   0.003408  -0.005193   0.000084   0.370155  -0.030919
     8  H   -0.032299  -0.007392   0.003680   0.002115   0.373878  -0.030602
     9  C   -0.032870   0.365265  -0.009377  -0.057691   0.004925  -0.000035
    10  H    0.003408  -0.023098   0.000084  -0.005193  -0.000162   0.000003
    11  H   -0.007392  -0.032299   0.002115   0.003680  -0.000035  -0.000014
    12  H   -0.007392  -0.032299   0.002115   0.003680  -0.000035   0.000041
               7          8          9         10         11         12
     1  C   -0.023098  -0.032299  -0.032870   0.003408  -0.007392  -0.007392
     2  C    0.003408  -0.007392   0.365265  -0.023098  -0.032299  -0.032299
     3  H   -0.005193   0.003680  -0.009377   0.000084   0.002115   0.002115
     4  H    0.000084   0.002115  -0.057691  -0.005193   0.003680   0.003680
     5  C    0.370155   0.373878   0.004925  -0.000162  -0.000035  -0.000035
     6  H   -0.030919  -0.030602  -0.000035   0.000003  -0.000014   0.000041
     7  H    0.569094  -0.030919  -0.000162   0.000002   0.000003   0.000003
     8  H   -0.030919   0.562335  -0.000035   0.000003   0.000041  -0.000014
     9  C   -0.000162  -0.000035   5.097678   0.370155   0.373878   0.373878
    10  H    0.000002   0.000003   0.370155   0.569094  -0.030919  -0.030919
    11  H    0.000003   0.000041   0.373878  -0.030919   0.562335  -0.030602
    12  H    0.000003  -0.000014   0.373878  -0.030919  -0.030602   0.562335
 Mulliken charges:
               1
     1  C   -0.098356
     2  C   -0.098356
     3  H    0.118004
     4  H    0.118004
     5  C   -0.485609
     6  H    0.159209
     7  H    0.147542
     8  H    0.159209
     9  C   -0.485609
    10  H    0.147542
    11  H    0.159209
    12  H    0.159209
 Sum of Mulliken charges =   0.00000
 Mulliken charges with hydrogens summed into heavy atoms:
               1
     1  C    0.019648
     2  C    0.019648
     5  C   -0.019648
     9  C   -0.019648
 Electronic spatial extent (au):  <R**2>=            402.4741
 Charge=              0.0000 electrons
 Dipole moment (field-independent basis, Debye):
    X=              0.0000    Y=              0.0000    Z=              0.0000  Tot=              0.0000
 Quadrupole moment (field-independent basis, Debye-Ang):
   XX=            -25.3172   YY=            -27.4913   ZZ=            -25.0577
   XY=              0.0000   XZ=             -0.0709   YZ=              0.0000
 Traceless Quadrupole moment (field-independent basis, Debye-Ang):
   XX=              0.6382   YY=             -1.5359   ZZ=              0.8977
   XY=              0.0000   XZ=             -0.0709   YZ=              0.0000
 Octapole moment (field-independent basis, Debye-Ang**2):
  XXX=              0.0000  YYY=              0.0000  ZZZ=              0.0000  XYY=              0.0000
  XXY=              0.0000  XXZ=              0.0000  XZZ=              0.0000  YZZ=              0.0000
  YYZ=              0.0000  XYZ=              0.0000
 Hexadecapole moment (field-independent basis, Debye-Ang**3):
 XXXX=           -220.0121 YYYY=            -41.5800 ZZZZ=           -279.5525 XXXY=              0.0000
 XXXZ=             92.3148 YYYX=              0.0000 YYYZ=             -0.0001 ZZZX=             91.9691
 ZZZY=             -0.0001 XXYY=            -40.1922 XXZZ=            -86.4763 YYZZ=            -57.0180
 XXYZ=              0.0000 YYXZ=             29.0338 ZZXY=              0.0000
 N-N= 1.151931686659D+02 E-N=-5.933731971413D+02  KE= 1.555889425009D+02
 Symmetry AG   KE= 7.841616020906D+01
 Symmetry AU   KE= 7.717278229187D+01
 1|1|UNPC-DESKTOP-283F0EC|FOpt|RB3LYP|6-31G(d)|C4H8|HANA|05-Jun-2021|0|
 |# opt b3lyp/6-31g(d) geom=connectivity int=ultrafine scf=tight||Ethyl
 ene Geometry Optimization||0,1|C,0.0325571826,-0.0000014003,-0.0119375
 869|C,-0.0325571833,0.0000014003,1.3219375869|H,-0.9002926374,-0.00000
 49255,-0.5791057764|H,0.9002926368,0.0000049255,1.8891057764|C,1.31336
 41065,-0.0000003443,-0.8172038487|H,1.9292231039,-0.8827403623,-0.6026
 803287|H,1.1083303372,0.0000042761,-1.8924891069|H,1.9292261912,0.8827
 357404,-0.6026731506|C,-1.3133641071,0.0000003443,2.1272038487|H,-1.10
 83303379,-0.0000042761,3.2024891069|H,-1.9292231045,0.8827403623,1.912
 6803287|H,-1.9292261919,-0.8827357404,1.9126731506||Version=EM64W-G09R
 evD.01|State=1-AG|HF=-157.220217|RMSD=4.179e-009|RMSF=5.409e-005|Dipol
 e=0.,0.,0.|Quadrupole=0.4744877,-1.1418904,0.6674027,0.0000027,-0.0527
 229,0.0000049|PG=CI [X(C4H8)]||@


 NOT WHAT WE DID SHALL BE THE TEST
 WHEN ACT AND WILL ARE DONE,
 BUT WHAT OUR LORD INFERS WE WOULD-
 HAD WE DIVINER BEEN.
           EMILY DICKINSON  POEMS NO. CLXXV
 Job cpu time:       0 days  0 hours  1 minutes  3.0 seconds.
 File lengths (MBytes):  RWF=      5 Int=      0 D2E=      0 Chk=      2 Scr=      1
 Normal termination of Gaussian 09 at Sat Jun 05 22:31:37 2021.
