 Entering Link 1 = C:\G09W\l1.exe PID=     21660.
  
 Copyright (c) 1988,1990,1992,1993,1995,1998,2003,2009,2013,
            Gaussian, Inc.  All Rights Reserved.
  
 This is part of the Gaussian(R) 09 program.  It is based on
 the Gaussian(R) 03 system (copyright 2003, Gaussian, Inc.),
 the Gaussian(R) 98 system (copyright 1998, Gaussian, Inc.),
 the Gaussian(R) 94 system (copyright 1995, Gaussian, Inc.),
 the Gaussian 92(TM) system (copyright 1992, Gaussian, Inc.),
 the Gaussian 90(TM) system (copyright 1990, Gaussian, Inc.),
 the Gaussian 88(TM) system (copyright 1988, Gaussian, Inc.),
 the Gaussian 86(TM) system (copyright 1986, Carnegie Mellon
 University), and the Gaussian 82(TM) system (copyright 1983,
 Carnegie Mellon University). Gaussian is a federally registered
 trademark of Gaussian, Inc.
  
 This software contains proprietary and confidential information,
 including trade secrets, belonging to Gaussian, Inc.
  
 This software is provided under written license and may be
 used, copied, transmitted, or stored only in accord with that
 written license.
  
 The following legend is applicable only to US Government
 contracts under FAR:
  
                    RESTRICTED RIGHTS LEGEND
  
 Use, reproduction and disclosure by the US Government is
 subject to restrictions as set forth in subparagraphs (a)
 and (c) of the Commercial Computer Software - Restricted
 Rights clause in FAR 52.227-19.
  
 Gaussian, Inc.
 340 Quinnipiac St., Bldg. 40, Wallingford CT 06492
  
  
 ---------------------------------------------------------------
 Warning -- This program may not be used in any manner that
 competes with the business of Gaussian, Inc. or will provide
 assistance to any competitor of Gaussian, Inc.  The licensee
 of this program is prohibited from giving any competitor of
 Gaussian, Inc. access to this program.  By using this program,
 the user acknowledges that Gaussian, Inc. is engaged in the
 business of creating and licensing software in the field of
 computational chemistry and represents and warrants to the
 licensee that it is not a competitor of Gaussian, Inc. and that
 it will not use this program in any manner prohibited above.
 ---------------------------------------------------------------
  

 Cite this work as:
 Gaussian 09, Revision D.01,
 M. J. Frisch, G. W. Trucks, H. B. Schlegel, G. E. Scuseria, 
 M. A. Robb, J. R. Cheeseman, G. Scalmani, V. Barone, B. Mennucci, 
 G. A. Petersson, H. Nakatsuji, M. Caricato, X. Li, H. P. Hratchian, 
 A. F. Izmaylov, J. Bloino, G. Zheng, J. L. Sonnenberg, M. Hada, 
 M. Ehara, K. Toyota, R. Fukuda, J. Hasegawa, M. Ishida, T. Nakajima, 
 Y. Honda, O. Kitao, H. Nakai, T. Vreven, J. A. Montgomery, Jr., 
 J. E. Peralta, F. Ogliaro, M. Bearpark, J. J. Heyd, E. Brothers, 
 K. N. Kudin, V. N. Staroverov, T. Keith, R. Kobayashi, J. Normand, 
 K. Raghavachari, A. Rendell, J. C. Burant, S. S. Iyengar, J. Tomasi, 
 M. Cossi, N. Rega, J. M. Millam, M. Klene, J. E. Knox, J. B. Cross, 
 V. Bakken, C. Adamo, J. Jaramillo, R. Gomperts, R. E. Stratmann, 
 O. Yazyev, A. J. Austin, R. Cammi, C. Pomelli, J. W. Ochterski, 
 R. L. Martin, K. Morokuma, V. G. Zakrzewski, G. A. Voth, 
 P. Salvador, J. J. Dannenberg, S. Dapprich, A. D. Daniels, 
 O. Farkas, J. B. Foresman, J. V. Ortiz, J. Cioslowski, 
 and D. J. Fox, Gaussian, Inc., Wallingford CT, 2013.
 
 ******************************************
 Gaussian 09:  EM64W-G09RevD.01 13-Apr-2013
                05-Jun-2021 
 ******************************************
 %chk=C:\G09W\mine\substituent\mini\mini_2_pp_td.chk
 ------------------------------------------------------
 #p td b3lyp/6-31g(d) nosymm geom=connectivity pop=full
 ------------------------------------------------------
 1/38=1,57=2/1;
 2/12=2,15=1,17=6,18=5,40=1/2;
 3/5=1,6=6,7=1,11=9,16=1,25=1,30=1,74=-5/1,2,8,3;
 4//1;
 5/5=2,38=5/2;
 8/6=1,10=2/1;
 9/42=1,70=2/14;
 6/7=3/1;
 99/5=1,9=1/99;
 Leave Link    1 at Sat Jun 05 22:50:53 2021, MaxMem=           0 cpu:         0.0
 (Enter C:\G09W\l101.exe)
 -------------------
 Title Card Required
 -------------------
 Symbolic Z-matrix:
 Charge =  0 Multiplicity = 1
 C                     1.80213   0.44073  -0.00001 
 H                     1.7193    1.52806  -0.00002 
 C                     0.66959  -0.28272   0. 
 H                     0.73381  -1.37321   0.00001 
 C                    -0.66959   0.28272   0.00001 
 H                    -0.73381   1.37321   0.00002 
 C                    -1.80213  -0.44073  0. 
 H                    -1.7193   -1.52806  -0.00001 
 C                    -3.19557   0.13801  0. 
 H                    -3.95486  -0.64985  -0.00002 
 H                    -3.3754    0.76629   0.88217 
 H                    -3.37539   0.76634  -0.88215 
 C                     3.19557  -0.13801   0. 
 H                     3.37534  -0.76646  -0.88207 
 H                     3.95486   0.64985  -0.00018 
 H                     3.37545  -0.76617   0.88225 
 
 NAtoms=     16 NQM=       16 NQMF=       0 NMMI=      0 NMMIF=      0
                NMic=       0 NMicF=      0.
                    Isotopes and Nuclear Properties:
 (Nuclear quadrupole moments (NQMom) in fm**2, nuclear magnetic moments (NMagM)
  in nuclear magnetons)

  Atom         1           2           3           4           5           6           7           8           9          10
 IAtWgt=          12           1          12           1          12           1          12           1          12           1
 AtmWgt=  12.0000000   1.0078250  12.0000000   1.0078250  12.0000000   1.0078250  12.0000000   1.0078250  12.0000000   1.0078250
 NucSpn=           0           1           0           1           0           1           0           1           0           1
 AtZEff=   0.0000000   0.0000000   0.0000000   0.0000000   0.0000000   0.0000000   0.0000000   0.0000000   0.0000000   0.0000000
 NQMom=    0.0000000   0.0000000   0.0000000   0.0000000   0.0000000   0.0000000   0.0000000   0.0000000   0.0000000   0.0000000
 NMagM=    0.0000000   2.7928460   0.0000000   2.7928460   0.0000000   2.7928460   0.0000000   2.7928460   0.0000000   2.7928460
 AtZNuc=   6.0000000   1.0000000   6.0000000   1.0000000   6.0000000   1.0000000   6.0000000   1.0000000   6.0000000   1.0000000

  Atom        11          12          13          14          15          16
 IAtWgt=           1           1          12           1           1           1
 AtmWgt=   1.0078250   1.0078250  12.0000000   1.0078250   1.0078250   1.0078250
 NucSpn=           1           1           0           1           1           1
 AtZEff=   0.0000000   0.0000000   0.0000000   0.0000000   0.0000000   0.0000000
 NQMom=    0.0000000   0.0000000   0.0000000   0.0000000   0.0000000   0.0000000
 NMagM=    2.7928460   2.7928460   0.0000000   2.7928460   2.7928460   2.7928460
 AtZNuc=   1.0000000   1.0000000   6.0000000   1.0000000   1.0000000   1.0000000
 Leave Link  101 at Sat Jun 05 22:50:53 2021, MaxMem=    33554432 cpu:         0.0
 (Enter C:\G09W\l202.exe)
                          Input orientation:                          
 ---------------------------------------------------------------------
 Center     Atomic      Atomic             Coordinates (Angstroms)
 Number     Number       Type             X           Y           Z
 ---------------------------------------------------------------------
      1          6           0        1.802130    0.440734   -0.000006
      2          1           0        1.719303    1.528056   -0.000016
      3          6           0        0.669587   -0.282721    0.000004
      4          1           0        0.733806   -1.373212    0.000010
      5          6           0       -0.669587    0.282721    0.000005
      6          1           0       -0.733806    1.373212    0.000015
      7          6           0       -1.802130   -0.440734   -0.000004
      8          1           0       -1.719303   -1.528056   -0.000014
      9          6           0       -3.195571    0.138006    0.000000
     10          1           0       -3.954863   -0.649845   -0.000025
     11          1           0       -3.375400    0.766294    0.882174
     12          1           0       -3.375387    0.766336   -0.882147
     13          6           0        3.195571   -0.138006    0.000000
     14          1           0        3.375336   -0.766463   -0.882065
     15          1           0        3.954863    0.649845   -0.000179
     16          1           0        3.375451   -0.766167    0.882255
 ---------------------------------------------------------------------
                    Distance matrix (angstroms):
                    1          2          3          4          5
     1  C    0.000000
     2  H    1.090472   0.000000
     3  C    1.343890   2.093040   0.000000
     4  H    2.105164   3.064075   1.092380   0.000000
     5  C    2.476762   2.694003   1.453655   2.170629   0.000000
     6  H    2.701942   2.457991   2.170629   3.113958   1.092380
     7  C    3.710481   4.034429   2.476762   2.701942   1.343890
     8  H    4.034429   4.600415   2.694003   2.457991   2.093040
     9  C    5.006861   5.107662   3.887989   4.209963   2.530126
    10  H    5.859380   6.077780   4.639000   4.744142   3.415072
    11  H    5.262228   5.226331   4.270899   4.716066   2.886778
    12  H    5.262211   5.226302   4.270893   4.716072   2.886768
    13  C    1.508846   2.226012   2.530126   2.754272   3.887989
    14  H    2.170330   2.963997   2.886716   2.850242   4.270860
    15  H    2.162866   2.401871   3.415072   3.803678   4.639000
    16  H    2.170330   2.963897   2.886830   2.850464   4.270932
                    6          7          8          9         10
     6  H    0.000000
     7  C    2.105164   0.000000
     8  H    3.064075   1.090472   0.000000
     9  C    2.754272   1.508846   2.226012   0.000000
    10  H    3.803678   2.162866   2.401871   1.094182   0.000000
    11  H    2.850363   2.170330   2.963942   1.097868   1.766211
    12  H    2.850343   2.170330   2.963951   1.097868   1.766211
    13  C    4.209963   5.006861   5.107662   6.397098   7.168729
    14  H    4.716072   5.262156   5.226221   6.691257   7.383998
    15  H    4.744142   5.859380   6.077780   7.168729   8.015795
    16  H    4.716067   5.262284   5.226412   6.691354   7.384135
                   11         12         13         14         15
    11  H    0.000000
    12  H    1.764320   0.000000
    13  C    6.691311   6.691300   0.000000
    14  H    7.143831   6.922553   1.097868   0.000000
    15  H    7.384095   7.384037   1.094182   1.766212   0.000000
    16  H    6.922602   7.143913   1.097869   1.764320   1.766210
                   16
    16  H    0.000000
 Symmetry turned off by external request.
 Stoichiometry    C6H10
 Framework group  C1[X(C6H10)]
 Deg. of freedom    42
 Full point group                 C1      NOp   1
 Rotational constants (GHZ):     23.0862241      1.1991966      1.1563470
 Leave Link  202 at Sat Jun 05 22:50:54 2021, MaxMem=    33554432 cpu:         0.0
 (Enter C:\G09W\l301.exe)
 Standard basis: 6-31G(d) (6D, 7F)
 Ernie: Thresh=  0.10000D-02 Tol=  0.10000D-05 Strict=F.
   110 basis functions,   208 primitive gaussians,   110 cartesian basis functions
    23 alpha electrons       23 beta electrons
       nuclear repulsion energy       207.4564627351 Hartrees.
 IExCor=  402 DFT=T Ex+Corr=B3LYP ExCW=0 ScaHFX=  0.200000
 ScaDFX=  0.800000  0.720000  1.000000  0.810000 ScalE2=  1.000000  1.000000
 IRadAn=      0 IRanWt=     -1 IRanGd=            0 ICorTp=0 IEmpDi=  4
 NAtoms=   16 NActive=   16 NUniq=   16 SFac= 1.00D+00 NAtFMM=   60 NAOKFM=F Big=F
 Integral buffers will be    131072 words long.
 Regular integral format.
 Two-electron integral symmetry is turned off.
 Leave Link  301 at Sat Jun 05 22:50:54 2021, MaxMem=    33554432 cpu:         0.0
 (Enter C:\G09W\l302.exe)
 NPDir=0 NMtPBC=     1 NCelOv=     1 NCel=       1 NClECP=     1 NCelD=      1
         NCelK=      1 NCelE2=     1 NClLst=     1 CellRange=     0.0.
 One-electron integrals computed using PRISM.
 NBasis=   110 RedAO= T EigKep=  2.71D-03  NBF=   110
 NBsUse=   110 1.00D-06 EigRej= -1.00D+00 NBFU=   110
 Precomputing XC quadrature grid using
 IXCGrd= 4 IRadAn=           0 IRanWt=          -1 IRanGd=           0 AccXCQ= 0.00D+00.
 Generated NRdTot=       0 NPtTot=           0 NUsed=           0 NTot=          32
 NSgBfM=   110   110   110   110   110 MxSgAt=    16 MxSgA2=    16.
 Leave Link  302 at Sat Jun 05 22:50:54 2021, MaxMem=    33554432 cpu:         0.0
 (Enter C:\G09W\l308.exe)
 Leave Link  308 at Sat Jun 05 22:50:54 2021, MaxMem=    33554432 cpu:         0.0
 (Enter C:\G09W\l303.exe)
 DipDrv:  MaxL=1.
 Leave Link  303 at Sat Jun 05 22:50:54 2021, MaxMem=    33554432 cpu:         0.0
 (Enter C:\G09W\l401.exe)
 ExpMin= 1.61D-01 ExpMax= 3.05D+03 ExpMxC= 4.57D+02 IAcc=1 IRadAn=         1 AccDes= 0.00D+00
 Harris functional with IExCor=  402 and IRadAn=       1 diagonalized for initial guess.
 HarFok:  IExCor=  402 AccDes= 0.00D+00 IRadAn=         1 IDoV= 1 UseB2=F ITyADJ=14
 ICtDFT=  3500011 ScaDFX=  1.000000  1.000000  1.000000  1.000000
 FoFCou: FMM=F IPFlag=           0 FMFlag=      100000 FMFlg1=           0
         NFxFlg=           0 DoJE=T BraDBF=F KetDBF=T FulRan=T
         wScrn=  0.000000 ICntrl=     500 IOpCl=  0 I1Cent=   200000004 NGrid=           0
         NMat0=    1 NMatS0=      1 NMatT0=    0 NMatD0=    1 NMtDS0=    0 NMtDT0=    0
 Symmetry not used in FoFCou.
 Harris En= -234.697147280988    
 JPrj=0 DoOrth=F DoCkMO=F.
 Leave Link  401 at Sat Jun 05 22:50:55 2021, MaxMem=    33554432 cpu:         1.0
 (Enter C:\G09W\l502.exe)
 Closed shell SCF:
 Using DIIS extrapolation, IDIIS=  1040.
 Two-electron integral symmetry not used.
 Keep R1 ints in memory in canonical form, NReq=19626665.
 IVT=       56202 IEndB=       56202 NGot=    33554432 MDV=    14859666
 LenX=    14859666 LenY=    14847125
 Requested convergence on RMS density matrix=1.00D-08 within 128 cycles.
 Requested convergence on MAX density matrix=1.00D-06.
 Requested convergence on             energy=1.00D-06.
 No special actions if energy rises.
 FoFCou: FMM=F IPFlag=           0 FMFlag=           0 FMFlg1=           0
         NFxFlg=           0 DoJE=F BraDBF=F KetDBF=F FulRan=T
         wScrn=  0.000000 ICntrl=     600 IOpCl=  0 I1Cent=           0 NGrid=           0
         NMat0=    1 NMatS0=   6105 NMatT0=    0 NMatD0=    1 NMtDS0=    0 NMtDT0=    0
 Symmetry not used in FoFCou.
 Integral accuracy reduced to 1.0D-05 until final iterations.

 Cycle   1  Pass 0  IDiag  1:
 E= -234.405034326428    
 DIIS: error= 5.48D-02 at cycle   1 NSaved=   1.
 NSaved= 1 IEnMin= 1 EnMin= -234.405034326428     IErMin= 1 ErrMin= 5.48D-02
 ErrMax= 5.48D-02  0.00D+00 EMaxC= 1.00D-01 BMatC= 1.93D-01 BMatP= 1.93D-01
 IDIUse=3 WtCom= 4.52D-01 WtEn= 5.48D-01
 Coeff-Com:  0.100D+01
 Coeff-En:   0.100D+01
 Coeff:      0.100D+01
 Gap=     0.190 Goal=   None    Shift=    0.000
 GapD=    0.190 DampG=1.000 DampE=0.500 DampFc=0.5000 IDamp=-1.
 Damping current iteration by 5.00D-01
 RMSDP=8.88D-03 MaxDP=1.32D-01              OVMax= 1.69D-01

 Cycle   2  Pass 0  IDiag  1:
 E= -234.512050643536     Delta-E=       -0.107016317108 Rises=F Damp=T
 DIIS: error= 7.93D-03 at cycle   2 NSaved=   2.
 NSaved= 2 IEnMin= 2 EnMin= -234.512050643536     IErMin= 2 ErrMin= 7.93D-03
 ErrMax= 7.93D-03  0.00D+00 EMaxC= 1.00D-01 BMatC= 6.43D-03 BMatP= 1.93D-01
 IDIUse=3 WtCom= 9.21D-01 WtEn= 7.93D-02
 Coeff-Com:  0.108D-01 0.989D+00
 Coeff-En:   0.616D-02 0.994D+00
 Coeff:      0.104D-01 0.990D+00
 Gap=     0.193 Goal=   None    Shift=    0.000
 RMSDP=1.46D-03 MaxDP=1.57D-02 DE=-1.07D-01 OVMax= 8.53D-02

 Cycle   3  Pass 0  IDiag  1:
 E= -234.625292585696     Delta-E=       -0.113241942160 Rises=F Damp=F
 DIIS: error= 1.90D-03 at cycle   3 NSaved=   3.
 NSaved= 3 IEnMin= 3 EnMin= -234.625292585696     IErMin= 3 ErrMin= 1.90D-03
 ErrMax= 1.90D-03  0.00D+00 EMaxC= 1.00D-01 BMatC= 5.11D-04 BMatP= 6.43D-03
 IDIUse=3 WtCom= 9.81D-01 WtEn= 1.90D-02
 Coeff-Com: -0.188D-01 0.155D+00 0.864D+00
 Coeff-En:   0.000D+00 0.000D+00 0.100D+01
 Coeff:     -0.184D-01 0.152D+00 0.866D+00
 Gap=     0.192 Goal=   None    Shift=    0.000
 RMSDP=3.21D-04 MaxDP=6.22D-03 DE=-1.13D-01 OVMax= 1.47D-02

 Cycle   4  Pass 0  IDiag  1:
 E= -234.625467637564     Delta-E=       -0.000175051868 Rises=F Damp=F
 DIIS: error= 1.93D-03 at cycle   4 NSaved=   4.
 NSaved= 4 IEnMin= 4 EnMin= -234.625467637564     IErMin= 3 ErrMin= 1.90D-03
 ErrMax= 1.93D-03  0.00D+00 EMaxC= 1.00D-01 BMatC= 3.53D-04 BMatP= 5.11D-04
 IDIUse=3 WtCom= 9.81D-01 WtEn= 1.93D-02
 Coeff-Com: -0.987D-02 0.508D-01 0.490D+00 0.469D+00
 Coeff-En:   0.000D+00 0.000D+00 0.395D+00 0.605D+00
 Coeff:     -0.968D-02 0.499D-01 0.488D+00 0.472D+00
 Gap=     0.192 Goal=   None    Shift=    0.000
 RMSDP=1.77D-04 MaxDP=4.20D-03 DE=-1.75D-04 OVMax= 8.62D-03

 Cycle   5  Pass 0  IDiag  1:
 E= -234.625790292646     Delta-E=       -0.000322655082 Rises=F Damp=F
 DIIS: error= 6.19D-04 at cycle   5 NSaved=   5.
 NSaved= 5 IEnMin= 5 EnMin= -234.625790292646     IErMin= 5 ErrMin= 6.19D-04
 ErrMax= 6.19D-04  0.00D+00 EMaxC= 1.00D-01 BMatC= 3.10D-05 BMatP= 3.53D-04
 IDIUse=3 WtCom= 9.94D-01 WtEn= 6.19D-03
 Coeff-Com: -0.258D-02 0.646D-02 0.162D+00 0.262D+00 0.572D+00
 Coeff-En:   0.000D+00 0.000D+00 0.000D+00 0.357D-01 0.964D+00
 Coeff:     -0.256D-02 0.642D-02 0.161D+00 0.261D+00 0.574D+00
 Gap=     0.192 Goal=   None    Shift=    0.000
 RMSDP=5.44D-05 MaxDP=1.15D-03 DE=-3.23D-04 OVMax= 2.32D-03

 Cycle   6  Pass 0  IDiag  1:
 E= -234.625819127337     Delta-E=       -0.000028834691 Rises=F Damp=F
 DIIS: error= 1.26D-04 at cycle   6 NSaved=   6.
 NSaved= 6 IEnMin= 6 EnMin= -234.625819127337     IErMin= 6 ErrMin= 1.26D-04
 ErrMax= 1.26D-04  0.00D+00 EMaxC= 1.00D-01 BMatC= 1.90D-06 BMatP= 3.10D-05
 IDIUse=3 WtCom= 9.99D-01 WtEn= 1.26D-03
 Coeff-Com: -0.733D-03 0.680D-03 0.568D-01 0.108D+00 0.307D+00 0.529D+00
 Coeff-En:   0.000D+00 0.000D+00 0.000D+00 0.000D+00 0.000D+00 0.100D+01
 Coeff:     -0.732D-03 0.679D-03 0.567D-01 0.108D+00 0.307D+00 0.529D+00
 Gap=     0.192 Goal=   None    Shift=    0.000
 RMSDP=1.55D-05 MaxDP=1.94D-04 DE=-2.88D-05 OVMax= 3.75D-04

 Cycle   7  Pass 0  IDiag  1:
 E= -234.625821158604     Delta-E=       -0.000002031267 Rises=F Damp=F
 DIIS: error= 8.82D-06 at cycle   7 NSaved=   7.
 NSaved= 7 IEnMin= 7 EnMin= -234.625821158604     IErMin= 7 ErrMin= 8.82D-06
 ErrMax= 8.82D-06  0.00D+00 EMaxC= 1.00D-01 BMatC= 9.45D-09 BMatP= 1.90D-06
 IDIUse=1 WtCom= 1.00D+00 WtEn= 0.00D+00
 Coeff-Com:  0.114D-05-0.271D-03 0.396D-02 0.885D-02 0.337D-01 0.997D-01
 Coeff-Com:  0.854D+00
 Coeff:      0.114D-05-0.271D-03 0.396D-02 0.885D-02 0.337D-01 0.997D-01
 Coeff:      0.854D+00
 Gap=     0.192 Goal=   None    Shift=    0.000
 RMSDP=1.19D-06 MaxDP=1.39D-05 DE=-2.03D-06 OVMax= 2.98D-05

 Initial convergence to 1.0D-05 achieved.  Increase integral accuracy.
 Cycle   8  Pass 1  IDiag  1:
 E= -234.625914517753     Delta-E=       -0.000093359149 Rises=F Damp=F
 DIIS: error= 1.05D-05 at cycle   1 NSaved=   1.
 NSaved= 1 IEnMin= 1 EnMin= -234.625914517753     IErMin= 1 ErrMin= 1.05D-05
 ErrMax= 1.05D-05  0.00D+00 EMaxC= 1.00D-01 BMatC= 8.53D-09 BMatP= 8.53D-09
 IDIUse=1 WtCom= 1.00D+00 WtEn= 0.00D+00
 Coeff-Com:  0.100D+01
 Coeff:      0.100D+01
 Gap=     0.192 Goal=   None    Shift=    0.000
 RMSDP=1.19D-06 MaxDP=1.39D-05 DE=-9.34D-05 OVMax= 4.76D-05

 Cycle   9  Pass 1  IDiag  1:
 E= -234.625914531656     Delta-E=       -0.000000013903 Rises=F Damp=F
 DIIS: error= 2.48D-06 at cycle   2 NSaved=   2.
 NSaved= 2 IEnMin= 2 EnMin= -234.625914531656     IErMin= 2 ErrMin= 2.48D-06
 ErrMax= 2.48D-06  0.00D+00 EMaxC= 1.00D-01 BMatC= 5.05D-10 BMatP= 8.53D-09
 IDIUse=1 WtCom= 1.00D+00 WtEn= 0.00D+00
 Coeff-Com:  0.608D-01 0.939D+00
 Coeff:      0.608D-01 0.939D+00
 Gap=     0.192 Goal=   None    Shift=    0.000
 RMSDP=6.07D-07 MaxDP=8.27D-06 DE=-1.39D-08 OVMax= 1.92D-05

 Cycle  10  Pass 1  IDiag  1:
 E= -234.625914531441     Delta-E=        0.000000000216 Rises=F Damp=F
 DIIS: error= 2.70D-06 at cycle   3 NSaved=   3.
 NSaved= 3 IEnMin= 2 EnMin= -234.625914531656     IErMin= 2 ErrMin= 2.48D-06
 ErrMax= 2.70D-06  0.00D+00 EMaxC= 1.00D-01 BMatC= 7.82D-10 BMatP= 5.05D-10
 IDIUse=1 WtCom= 1.00D+00 WtEn= 0.00D+00
 Coeff-Com: -0.983D-02 0.564D+00 0.446D+00
 Coeff:     -0.983D-02 0.564D+00 0.446D+00
 Gap=     0.192 Goal=   None    Shift=    0.000
 RMSDP=2.91D-07 MaxDP=6.29D-06 DE= 2.16D-10 OVMax= 1.32D-05

 Cycle  11  Pass 1  IDiag  1:
 E= -234.625914532220     Delta-E=       -0.000000000780 Rises=F Damp=F
 DIIS: error= 8.15D-07 at cycle   4 NSaved=   4.
 NSaved= 4 IEnMin= 4 EnMin= -234.625914532220     IErMin= 4 ErrMin= 8.15D-07
 ErrMax= 8.15D-07  0.00D+00 EMaxC= 1.00D-01 BMatC= 5.38D-11 BMatP= 5.05D-10
 IDIUse=1 WtCom= 1.00D+00 WtEn= 0.00D+00
 Coeff-Com: -0.118D-01 0.203D+00 0.247D+00 0.562D+00
 Coeff:     -0.118D-01 0.203D+00 0.247D+00 0.562D+00
 Gap=     0.192 Goal=   None    Shift=    0.000
 RMSDP=7.13D-08 MaxDP=1.18D-06 DE=-7.80D-10 OVMax= 2.71D-06

 Cycle  12  Pass 1  IDiag  1:
 E= -234.625914532277     Delta-E=       -0.000000000057 Rises=F Damp=F
 DIIS: error= 4.84D-08 at cycle   5 NSaved=   5.
 NSaved= 5 IEnMin= 5 EnMin= -234.625914532277     IErMin= 5 ErrMin= 4.84D-08
 ErrMax= 4.84D-08  0.00D+00 EMaxC= 1.00D-01 BMatC= 1.61D-13 BMatP= 5.38D-11
 IDIUse=1 WtCom= 1.00D+00 WtEn= 0.00D+00
 Coeff-Com: -0.226D-02 0.247D-01 0.323D-01 0.927D-01 0.853D+00
 Coeff:     -0.226D-02 0.247D-01 0.323D-01 0.927D-01 0.853D+00
 Gap=     0.192 Goal=   None    Shift=    0.000
 RMSDP=5.89D-09 MaxDP=1.13D-07 DE=-5.68D-11 OVMax= 1.31D-07

 SCF Done:  E(RB3LYP) =  -234.625914532     A.U. after   12 cycles
            NFock= 12  Conv=0.59D-08     -V/T= 2.0103
 KE= 2.322272522021D+02 PE=-9.569935239815D+02 EE= 2.826838945119D+02
 Leave Link  502 at Sat Jun 05 22:51:12 2021, MaxMem=    33554432 cpu:        17.0
 (Enter C:\G09W\l801.exe)
 DoSCS=F DFT=T ScalE2(SS,OS)=  1.000000  1.000000
 ExpMin= 1.61D-01 ExpMax= 3.05D+03 ExpMxC= 4.57D+02 IAcc=3 IRadAn=         5 AccDes= 0.00D+00
 HarFok:  IExCor=  205 AccDes= 0.00D+00 IRadAn=         5 IDoV=-2 UseB2=F ITyADJ=14
 ICtDFT= 12500011 ScaDFX=  1.000000  1.000000  1.000000  1.000000
 Largest valence mixing into a core orbital is  5.39D-05
 Largest core mixing into a valence orbital is  1.08D-05
 Range of M.O.s used for correlation:     7   110
 NBasis=   110 NAE=    23 NBE=    23 NFC=     6 NFV=     0
 NROrb=    104 NOA=    17 NOB=    17 NVA=    87 NVB=    87
 Leave Link  801 at Sat Jun 05 22:51:12 2021, MaxMem=    33554432 cpu:         0.0
 (Enter C:\G09W\l914.exe)
 RHF ground state
 MDV=    33554432 DFT=T DoStab=F Mixed=T DoRPA=T DoScal=F NonHer=T
 Would need an additional            24500000 words for in-memory AO integral storage.
 Making orbital integer symmetry assigments:
    12 initial guesses have been made.
 Convergence on wavefunction:    0.001000000000000
 Davidson Disk Diagonalization:  ConvIn= 1.00D-03 SkipCon=T Conv= 1.00D-03.
 Max sub-space:   200 roots to seek:    12 dimension of matrix:         2958
 Iteration     1 Dimension    12 NMult     0 NNew     12
 CISAX will form    12 AO SS matrices at one time.
 NMat=    12 NSing=    12 JSym2X= 0.
 FoFJK:  IHMeth= 1 ICntrl=       0 DoSepK=F KAlg= 0 I1Cent=   0 FoldK=F
 IRaf=         0 NMat=  24 IRICut=      30 DoRegI=T DoRafI=T ISym2E= 0.
 FoFCou: FMM=F IPFlag=           0 FMFlag=      100000 FMFlg1=           0
         NFxFlg=           0 DoJE=F BraDBF=F KetDBF=F FulRan=T
         wScrn=  0.000000 ICntrl=       0 IOpCl=  0 I1Cent=           0 NGrid=           0
         NMat0=   24 NMatS0=     12 NMatT0=    0 NMatD0=   24 NMtDS0=    0 NMtDT0=    0
 Symmetry not used in FoFCou.
 New state      2 was old state      3
 New state      3 was old state      4
 Excitation Energies [eV] at current iteration:
 Root      1 :     6.516882732626504
 Root      2 :     6.804875641591909
 Root      3 :     7.419656153662537
 Root      4 :     7.511821708878637
 Root      5 :     7.951305564630374
 Root      6 :     8.043072608207616
 Root      7 :     8.101654056795958
 Root      8 :     8.103266514228725
 Root      9 :     8.478696073385100
 Root     10 :     8.964057477957715
 Root     11 :     9.037626329104166
 Root     12 :     9.444308591770223
 Iteration     2 Dimension    18 NMult    12 NNew      6
 CISAX will form     6 AO SS matrices at one time.
 NMat=     6 NSing=     6 JSym2X= 0.
 Root      1 not converged, maximum delta is    0.068051865487505
 Root      2 not converged, maximum delta is    0.020242324826551
 Root      3 not converged, maximum delta is    0.055815954285525
 Excitation Energies [eV] at current iteration:
 Root      1 :     5.529442701119908   Change is   -0.987440031506595
 Root      2 :     6.767333937912836   Change is   -0.037541703679072
 Root      3 :     7.362905807326572   Change is   -0.056750346335965
 Iteration     3 Dimension    24 NMult    18 NNew      6
 CISAX will form     6 AO SS matrices at one time.
 NMat=     6 NSing=     6 JSym2X= 0.
 Root      1 not converged, maximum delta is    0.019011770215766
 Root      2 not converged, maximum delta is    0.001680795691627
 Root      3 not converged, maximum delta is    0.016415402400929
 Excitation Energies [eV] at current iteration:
 Root      1 :     5.487865077811665   Change is   -0.041577623308244
 Root      2 :     6.765432250803026   Change is   -0.001901687109811
 Root      3 :     7.360223833499020   Change is   -0.002681973827553
 Iteration     4 Dimension    30 NMult    24 NNew      6
 CISAX will form     6 AO SS matrices at one time.
 NMat=     6 NSing=     6 JSym2X= 0.
 Root      1 not converged, maximum delta is    0.002229467173132
 Root      2 not converged, maximum delta is    0.001399793623869
 Root      3 not converged, maximum delta is    0.004277947574313
 Excitation Energies [eV] at current iteration:
 Root      1 :     5.485080651704354   Change is   -0.002784426107310
 Root      2 :     6.765261431639970   Change is   -0.000170819163056
 Root      3 :     7.359934260877819   Change is   -0.000289572621200
 Iteration     5 Dimension    36 NMult    30 NNew      6
 CISAX will form     6 AO SS matrices at one time.
 NMat=     6 NSing=     6 JSym2X= 0.
 Root      1 has converged.
 Root      2 has converged.
 Root      3 not converged, maximum delta is    0.001654657558903
 Excitation Energies [eV] at current iteration:
 Root      1 :     5.484924983125841   Change is   -0.000155668578514
 Root      2 :     6.765241443099490   Change is   -0.000019988540480
 Root      3 :     7.359893457584998   Change is   -0.000040803292821
 Iteration     6 Dimension    38 NMult    36 NNew      2
 CISAX will form     2 AO SS matrices at one time.
 NMat=     2 NSing=     2 JSym2X= 0.
 Root      1 has converged.
 Root      2 has converged.
 Root      3 has converged.
 Excitation Energies [eV] at current iteration:
 Root      1 :     5.484924983125452   Change is   -0.000000000000390
 Root      2 :     6.765241443097594   Change is   -0.000000000001896
 Root      3 :     7.359887805994860   Change is   -0.000005651590138
 Convergence achieved on expansion vectors.
 ***********************************************************************
 Excited states from <AA,BB:AA,BB> singles matrix:
 ***********************************************************************
 
 1PDM for each excited state written to RWF  633
 Ground to excited state transition densities written to RWF  633
 Ground to excited state transition electric dipole moments (Au):
       state          X           Y           Z        Dip. S.      Osc.
         1        -2.4442     -0.3233      0.0000      6.0786      0.8168
         2         0.0000      0.0000      0.0000      0.0000      0.0000
         3         0.0000      0.0000     -0.0300      0.0009      0.0002
 Ground to excited state transition velocity dipole moments (Au):
       state          X           Y           Z        Dip. S.      Osc.
         1         0.4903      0.0589      0.0000      0.2438      0.8064
         2         0.0000      0.0000      0.0000      0.0000      0.0000
         3         0.0000      0.0000      0.0045      0.0000      0.0000
 Ground to excited state transition magnetic dipole moments (Au):
       state          X           Y           Z
         1         0.0000      0.0000      0.0000
         2         0.0000      0.0000     -0.1255
         3         0.0000      0.0000      0.0000
 Ground to excited state transition velocity quadrupole moments (Au):
       state          XX          YY          ZZ          XY          XZ          YZ
         1         0.0000      0.0000      0.0000      0.0000      0.0000      0.0000
         2        -0.1514     -0.0053     -0.0312     -0.0065      0.0000      0.0000
         3         0.0000      0.0000      0.0000      0.0000      0.0000      0.0000
 <0|del|b> * <b|rxdel|0> + <0|del|b> * <b|delr+rdel|0>
 Rotatory Strengths (R) in cgs (10**-40 erg-esu-cm/Gauss)
       state          XX          YY          ZZ    R(velocity)    E-M Angle
         1        -0.0076      0.0051      0.0126      0.0034       90.00
         2        -0.0004     -0.0003      0.0000     -0.0002       90.00
         3        -0.0004     -0.0001      0.0000     -0.0002       90.00
 1/2[<0|r|b>*<b|rxdel|0> + (<0|rxdel|b>*<b|r|0>)*]
 Rotatory Strengths (R) in cgs (10**-40 erg-esu-cm/Gauss)
       state          XX          YY          ZZ     R(length)
         1         0.0176     -0.0082      0.0000      0.0031
         2         0.0000      0.0000     -0.0003     -0.0001
         3         0.0000      0.0000     -0.0009     -0.0003
  1/2[<0|del|b>*<b|r|0> + (<0|r|b>*<b|del|0>)*] (Au)
       state          X           Y           Z        Dip. S.   Osc.(frdel)
         1        -1.1983     -0.0190      0.0000      1.2173      0.8115
         2         0.0000      0.0000      0.0000      0.0000      0.0000
         3         0.0000      0.0000     -0.0001      0.0001      0.0001

 Excitation energies and oscillator strengths:
 
 Excited state symmetry could not be determined.
 Excited State   1:      Singlet-?Sym    5.4849 eV  226.05 nm  f=0.8168  <S**2>=0.000
      23 -> 24         0.70729
      23 <- 24        -0.10559
 This state for optimization and/or second-order correction.
 Total Energy, E(TD-HF/TD-KS) =  -234.424347239    
 Copying the excited state density for this state as the 1-particle RhoCI density.
 
 Excited state symmetry could not be determined.
 Excited State   2:      Singlet-?Sym    6.7652 eV  183.27 nm  f=0.0000  <S**2>=0.000
      22 -> 24         0.48731
      23 -> 25         0.51119
 
 Excited state symmetry could not be determined.
 Excited State   3:      Singlet-?Sym    7.3599 eV  168.46 nm  f=0.0002  <S**2>=0.000
      21 -> 24         0.51493
      23 -> 26        -0.47631
 SavETr:  write IOETrn=   770 NScale= 10 NData=  16 NLR=1 NState=    3 LETran=      64.
 Leave Link  914 at Sat Jun 05 22:52:30 2021, MaxMem=    33554432 cpu:        78.0
 (Enter C:\G09W\l601.exe)
 Copying SCF densities to generalized density rwf, IOpCl= 0 IROHF=0.

 **********************************************************************

            Population analysis using the SCF density.

 **********************************************************************

 Alpha  occ. eigenvalues --  -10.18264 -10.18264 -10.17906 -10.17906 -10.17869
 Alpha  occ. eigenvalues --  -10.17834  -0.80425  -0.76553  -0.70780  -0.64919
 Alpha  occ. eigenvalues --   -0.55260  -0.54541  -0.46415  -0.43906  -0.40852
 Alpha  occ. eigenvalues --   -0.40595  -0.39673  -0.39034  -0.35585  -0.34957
 Alpha  occ. eigenvalues --   -0.33320  -0.29920  -0.20553
 Alpha virt. eigenvalues --   -0.01340   0.08239   0.10826   0.11944   0.12357
 Alpha virt. eigenvalues --    0.14018   0.15756   0.16727   0.19024   0.19738
 Alpha virt. eigenvalues --    0.19963   0.21112   0.25650   0.28792   0.34915
 Alpha virt. eigenvalues --    0.35334   0.41624   0.48658   0.50430   0.53890
 Alpha virt. eigenvalues --    0.56833   0.57261   0.58731   0.60110   0.60679
 Alpha virt. eigenvalues --    0.62518   0.63204   0.68654   0.74568   0.75519
 Alpha virt. eigenvalues --    0.76231   0.77608   0.78890   0.85446   0.87268
 Alpha virt. eigenvalues --    0.87551   0.87620   0.89306   0.90280   0.92076
 Alpha virt. eigenvalues --    0.92913   0.95575   0.95584   1.00083   1.06381
 Alpha virt. eigenvalues --    1.14994   1.16027   1.29853   1.29971   1.35207
 Alpha virt. eigenvalues --    1.35708   1.41163   1.44261   1.45845   1.53379
 Alpha virt. eigenvalues --    1.66981   1.79721   1.79906   1.84338   1.88752
 Alpha virt. eigenvalues --    1.91000   1.95723   2.03785   2.08497   2.09434
 Alpha virt. eigenvalues --    2.11298   2.13303   2.20131   2.20953   2.26305
 Alpha virt. eigenvalues --    2.33738   2.33811   2.35254   2.50117   2.51157
 Alpha virt. eigenvalues --    2.52123   2.65070   2.78321   2.81187   3.02923
 Alpha virt. eigenvalues --    3.02961   4.10355   4.13488   4.17450   4.29025
 Alpha virt. eigenvalues --    4.38386   4.51386
     Molecular Orbital Coefficients:
                           1         2         3         4         5
                           O         O         O         O         O
     Eigenvalues --   -10.18264 -10.18264 -10.17906 -10.17906 -10.17869
   1 1   C  1S          0.69786  -0.69839   0.02282  -0.02104  -0.07337
   2        2S          0.03458  -0.03466   0.00124  -0.00118  -0.00408
   3        2PX         0.00012  -0.00007   0.00015  -0.00016   0.00022
   4        2PY        -0.00006   0.00005  -0.00005   0.00006   0.00014
   5        2PZ         0.00000   0.00000   0.00000   0.00000   0.00000
   6        3S         -0.01011   0.01035  -0.00284   0.00329   0.00511
   7        3PX        -0.00054  -0.00031  -0.00187   0.00177  -0.00176
   8        3PY         0.00116  -0.00104   0.00006  -0.00060  -0.00063
   9        3PZ         0.00000   0.00000   0.00000   0.00000   0.00000
  10        4XX        -0.00642   0.00646   0.00008  -0.00010   0.00051
  11        4YY        -0.00653   0.00653  -0.00010   0.00010   0.00051
  12        4ZZ        -0.00672   0.00671  -0.00013   0.00009   0.00059
  13        4XY         0.00010  -0.00009  -0.00005   0.00007  -0.00004
  14        4XZ         0.00000   0.00000   0.00000   0.00000   0.00000
  15        4YZ         0.00000   0.00000   0.00000   0.00000   0.00000
  16 2   H  1S         -0.00028   0.00021   0.00009  -0.00008  -0.00007
  17        2S          0.00132  -0.00127   0.00031  -0.00004  -0.00044
  18 3   C  1S          0.07212  -0.06667   0.01444  -0.02926   0.69756
  19        2S          0.00313  -0.00300   0.00064  -0.00154   0.03463
  20        2PX        -0.00024   0.00028   0.00007  -0.00004   0.00016
  21        2PY        -0.00013   0.00016  -0.00005   0.00005   0.00001
  22        2PZ         0.00000   0.00000   0.00000   0.00000   0.00000
  23        3S          0.00294  -0.00239   0.00106   0.00039  -0.00825
  24        3PX         0.00146  -0.00202  -0.00172   0.00001  -0.00170
  25        3PY         0.00015  -0.00048   0.00038   0.00010  -0.00139
  26        3PZ         0.00000   0.00000   0.00000   0.00000   0.00000
  27        4XX        -0.00083   0.00083  -0.00012   0.00030  -0.00670
  28        4YY        -0.00089   0.00082  -0.00021   0.00034  -0.00673
  29        4ZZ        -0.00082   0.00072  -0.00015   0.00022  -0.00683
  30        4XY        -0.00002   0.00002  -0.00010   0.00002   0.00021
  31        4XZ         0.00000   0.00000   0.00000   0.00000   0.00000
  32        4YZ         0.00000   0.00000   0.00000   0.00000   0.00000
  33 4   H  1S         -0.00012   0.00008   0.00002  -0.00007  -0.00033
  34        2S         -0.00032   0.00000   0.00013   0.00015   0.00098
  35 5   C  1S          0.07211   0.06667  -0.01447  -0.02925   0.69756
  36        2S          0.00313   0.00300  -0.00064  -0.00154   0.03463
  37        2PX         0.00024   0.00028   0.00007   0.00004  -0.00016
  38        2PY         0.00013   0.00016  -0.00005  -0.00005  -0.00001
  39        2PZ         0.00000   0.00000   0.00000   0.00000   0.00000
  40        3S          0.00294   0.00239  -0.00106   0.00039  -0.00825
  41        3PX        -0.00146  -0.00202  -0.00172  -0.00001   0.00170
  42        3PY        -0.00015  -0.00048   0.00038  -0.00010   0.00139
  43        3PZ         0.00000   0.00000   0.00000   0.00000   0.00000
  44        4XX        -0.00083  -0.00083   0.00012   0.00030  -0.00670
  45        4YY        -0.00089  -0.00082   0.00021   0.00034  -0.00673
  46        4ZZ        -0.00082  -0.00072   0.00015   0.00022  -0.00683
  47        4XY        -0.00002  -0.00002   0.00010   0.00002   0.00021
  48        4XZ         0.00000   0.00000   0.00000   0.00000   0.00000
  49        4YZ         0.00000   0.00000   0.00000   0.00000   0.00000
  50 6   H  1S         -0.00012  -0.00008  -0.00002  -0.00007  -0.00033
  51        2S         -0.00032   0.00000  -0.00013   0.00015   0.00098
  52 7   C  1S          0.69785   0.69840  -0.02283  -0.02102  -0.07337
  53        2S          0.03458   0.03466  -0.00124  -0.00118  -0.00408
  54        2PX        -0.00012  -0.00007   0.00015   0.00015  -0.00022
  55        2PY         0.00006   0.00005  -0.00005  -0.00006  -0.00014
  56        2PZ         0.00000   0.00000   0.00000   0.00000   0.00000
  57        3S         -0.01011  -0.01035   0.00284   0.00329   0.00511
  58        3PX         0.00054  -0.00031  -0.00187  -0.00176   0.00176
  59        3PY        -0.00116  -0.00104   0.00006   0.00060   0.00063
  60        3PZ         0.00000   0.00000   0.00000   0.00000   0.00000
  61        4XX        -0.00642  -0.00646  -0.00008  -0.00010   0.00051
  62        4YY        -0.00653  -0.00653   0.00010   0.00010   0.00051
  63        4ZZ        -0.00672  -0.00671   0.00013   0.00009   0.00059
  64        4XY         0.00010   0.00009   0.00005   0.00007  -0.00004
  65        4XZ         0.00000   0.00000   0.00000   0.00000   0.00000
  66        4YZ         0.00000   0.00000   0.00000   0.00000   0.00000
  67 8   H  1S         -0.00028  -0.00021  -0.00009  -0.00008  -0.00007
  68        2S          0.00132   0.00127  -0.00031  -0.00004  -0.00044
  69 9   C  1S          0.02379   0.02397   0.70186   0.70090   0.02692
  70        2S          0.00105   0.00112   0.03537   0.03528   0.00129
  71        2PX        -0.00015  -0.00016   0.00007   0.00003  -0.00002
  72        2PY         0.00013   0.00014   0.00001  -0.00001  -0.00002
  73        2PZ         0.00000   0.00000   0.00000   0.00000   0.00000
  74        3S          0.00242   0.00177  -0.01232  -0.01225  -0.00049
  75        3PX         0.00134   0.00106  -0.00077  -0.00069   0.00010
  76        3PY        -0.00062  -0.00052   0.00024   0.00030   0.00000
  77        3PZ         0.00000   0.00000   0.00000   0.00000   0.00000
  78        4XX        -0.00050  -0.00049  -0.00647  -0.00648  -0.00018
  79        4YY        -0.00039  -0.00038  -0.00644  -0.00645  -0.00022
  80        4ZZ        -0.00026  -0.00024  -0.00643  -0.00644  -0.00027
  81        4XY         0.00014   0.00015   0.00003   0.00002  -0.00002
  82        4XZ         0.00000   0.00000   0.00000   0.00000   0.00000
  83        4YZ         0.00000   0.00000   0.00000   0.00000   0.00000
  84 10  H  1S         -0.00008  -0.00006  -0.00003  -0.00003   0.00000
  85        2S         -0.00003  -0.00004   0.00185   0.00192   0.00024
  86 11  H  1S         -0.00013  -0.00011  -0.00001  -0.00002  -0.00001
  87        2S          0.00030   0.00030   0.00193   0.00190   0.00010
  88 12  H  1S         -0.00013  -0.00011  -0.00001  -0.00002  -0.00001
  89        2S          0.00030   0.00030   0.00193   0.00190   0.00010
  90 13  C  1S          0.02379  -0.02397  -0.70132   0.70144   0.02692
  91        2S          0.00105  -0.00112  -0.03534   0.03530   0.00129
  92        2PX         0.00015  -0.00016   0.00007  -0.00003   0.00002
  93        2PY        -0.00013   0.00014   0.00001   0.00001   0.00002
  94        2PZ         0.00000   0.00000   0.00000   0.00000   0.00000
  95        3S          0.00242  -0.00177   0.01231  -0.01226  -0.00049
  96        3PX        -0.00134   0.00106  -0.00077   0.00069  -0.00010
  97        3PY         0.00062  -0.00052   0.00024  -0.00030   0.00000
  98        3PZ         0.00000   0.00000   0.00000   0.00000   0.00000
  99        4XX        -0.00050   0.00049   0.00647  -0.00649  -0.00018
 100        4YY        -0.00039   0.00038   0.00643  -0.00645  -0.00022
 101        4ZZ        -0.00026   0.00024   0.00642  -0.00645  -0.00027
 102        4XY         0.00014  -0.00015  -0.00003   0.00002  -0.00002
 103        4XZ         0.00000   0.00000   0.00000   0.00000   0.00000
 104        4YZ         0.00000   0.00000   0.00000   0.00000   0.00000
 105 14  H  1S         -0.00013   0.00011   0.00001  -0.00002  -0.00001
 106        2S          0.00030  -0.00030  -0.00193   0.00190   0.00010
 107 15  H  1S         -0.00008   0.00006   0.00003  -0.00003   0.00000
 108        2S         -0.00003   0.00004  -0.00185   0.00192   0.00024
 109 16  H  1S         -0.00013   0.00011   0.00001  -0.00002  -0.00001
 110        2S          0.00030  -0.00030  -0.00193   0.00190   0.00010
                           6         7         8         9        10
                           O         O         O         O         O
     Eigenvalues --   -10.17834  -0.80425  -0.76553  -0.70780  -0.64919
   1 1   C  1S         -0.06745  -0.09669  -0.11009  -0.02546  -0.06487
   2        2S         -0.00370   0.18591   0.21379   0.05064   0.12937
   3        2PX         0.00021  -0.04123   0.00807   0.11910  -0.13907
   4        2PY         0.00018  -0.03461  -0.03611  -0.00217  -0.01712
   5        2PZ         0.00000   0.00000   0.00000   0.00000   0.00000
   6        3S          0.00519   0.13918   0.14505   0.01821   0.10229
   7        3PX        -0.00192  -0.00924   0.00317   0.03573  -0.03550
   8        3PY        -0.00068  -0.00190   0.01123   0.00624   0.01575
   9        3PZ         0.00000   0.00000   0.00000   0.00000   0.00000
  10        4XX         0.00039   0.00452   0.00384   0.00217  -0.00528
  11        4YY         0.00038   0.00037   0.00101   0.00018   0.00237
  12        4ZZ         0.00057  -0.01021  -0.01119  -0.00239  -0.00602
  13        4XY        -0.00008   0.00257  -0.00066  -0.00765   0.00876
  14        4XZ         0.00000   0.00000   0.00000   0.00000   0.00000
  15        4YZ         0.00000   0.00000   0.00000   0.00000   0.00000
  16 2   H  1S         -0.00006   0.04744   0.05586   0.01336   0.04375
  17        2S         -0.00031   0.00726   0.00522   0.00248   0.00517
  18 3   C  1S          0.69880  -0.12050  -0.05625   0.07998  -0.07696
  19        2S          0.03515   0.23320   0.11001  -0.15871   0.15484
  20        2PX        -0.00025  -0.00361   0.08877   0.06756   0.11151
  21        2PY         0.00024   0.04030   0.02615  -0.02029   0.03552
  22        2PZ         0.00000   0.00000   0.00000   0.00000   0.00000
  23        3S         -0.01564   0.14730   0.07268  -0.10508   0.11166
  24        3PX         0.00169  -0.01302   0.02726   0.02908   0.03699
  25        3PY        -0.00206  -0.01406  -0.00488   0.02091  -0.00952
  26        3PZ         0.00000   0.00000   0.00000   0.00000   0.00000
  27        4XX        -0.00607   0.00628  -0.00094  -0.00068  -0.00685
  28        4YY        -0.00631   0.00047   0.00077  -0.00140   0.00297
  29        4ZZ        -0.00662  -0.01277  -0.00550   0.00775  -0.00670
  30        4XY        -0.00003   0.00008   0.00546   0.00370   0.00651
  31        4XZ         0.00000   0.00000   0.00000   0.00000   0.00000
  32        4YZ         0.00000   0.00000   0.00000   0.00000   0.00000
  33 4   H  1S         -0.00016   0.05846   0.02766  -0.04417   0.04362
  34        2S          0.00140   0.00480   0.00124  -0.00177   0.00412
  35 5   C  1S         -0.69880  -0.12050   0.05625   0.07998   0.07696
  36        2S         -0.03515   0.23320  -0.11001  -0.15871  -0.15484
  37        2PX        -0.00025   0.00361   0.08877  -0.06756   0.11151
  38        2PY         0.00024  -0.04030   0.02615   0.02029   0.03552
  39        2PZ         0.00000   0.00000   0.00000   0.00000   0.00000
  40        3S          0.01564   0.14730  -0.07268  -0.10508  -0.11166
  41        3PX         0.00169   0.01302   0.02726  -0.02908   0.03699
  42        3PY        -0.00206   0.01406  -0.00488  -0.02091  -0.00952
  43        3PZ         0.00000   0.00000   0.00000   0.00000   0.00000
  44        4XX         0.00607   0.00628   0.00094  -0.00068   0.00685
  45        4YY         0.00631   0.00047  -0.00077  -0.00140  -0.00297
  46        4ZZ         0.00662  -0.01277   0.00550   0.00775   0.00670
  47        4XY         0.00003   0.00008  -0.00546   0.00370  -0.00651
  48        4XZ         0.00000   0.00000   0.00000   0.00000   0.00000
  49        4YZ         0.00000   0.00000   0.00000   0.00000   0.00000
  50 6   H  1S          0.00016   0.05846  -0.02766  -0.04417  -0.04362
  51        2S         -0.00140   0.00480  -0.00124  -0.00177  -0.00412
  52 7   C  1S          0.06745  -0.09669   0.11009  -0.02546   0.06487
  53        2S          0.00370   0.18591  -0.21379   0.05064  -0.12937
  54        2PX         0.00021   0.04123   0.00807  -0.11910  -0.13907
  55        2PY         0.00018   0.03461  -0.03611   0.00217  -0.01712
  56        2PZ         0.00000   0.00000   0.00000   0.00000   0.00000
  57        3S         -0.00519   0.13918  -0.14505   0.01821  -0.10229
  58        3PX        -0.00192   0.00924   0.00317  -0.03573  -0.03550
  59        3PY        -0.00068   0.00190   0.01123  -0.00624   0.01575
  60        3PZ         0.00000   0.00000   0.00000   0.00000   0.00000
  61        4XX        -0.00039   0.00452  -0.00384   0.00217   0.00528
  62        4YY        -0.00038   0.00037  -0.00101   0.00018  -0.00237
  63        4ZZ        -0.00057  -0.01021   0.01119  -0.00239   0.00602
  64        4XY         0.00008   0.00257   0.00066  -0.00765  -0.00876
  65        4XZ         0.00000   0.00000   0.00000   0.00000   0.00000
  66        4YZ         0.00000   0.00000   0.00000   0.00000   0.00000
  67 8   H  1S          0.00006   0.04744  -0.05586   0.01336  -0.04375
  68        2S          0.00031   0.00726  -0.00522   0.00248  -0.00517
  69 9   C  1S         -0.01226  -0.05222   0.09551  -0.11925  -0.10024
  70        2S         -0.00064   0.09812  -0.18118   0.23060   0.19780
  71        2PX        -0.00001   0.03243  -0.04004   0.00148  -0.05899
  72        2PY        -0.00001  -0.00873   0.01317  -0.00720   0.01139
  73        2PZ         0.00000   0.00000   0.00000   0.00000   0.00000
  74        3S          0.00063   0.08092  -0.16095   0.21016   0.18503
  75        3PX         0.00023   0.00646  -0.00956  -0.00470  -0.02747
  76        3PY         0.00027   0.00160  -0.00222   0.00259   0.00285
  77        3PZ         0.00000   0.00000   0.00000   0.00000   0.00000
  78        4XX         0.00004   0.00353  -0.00380  -0.00149  -0.00733
  79        4YY         0.00003  -0.00075   0.00075   0.00077   0.00249
  80        4ZZ         0.00011  -0.00140   0.00151   0.00028   0.00266
  81        4XY         0.00002  -0.00178   0.00183   0.00066   0.00380
  82        4XZ         0.00000   0.00000   0.00000   0.00000   0.00000
  83        4YZ         0.00000   0.00000   0.00000   0.00000   0.00000
  84 10  H  1S          0.00001   0.02537  -0.05263   0.08084   0.08536
  85        2S         -0.00002   0.00525  -0.01177   0.02167   0.02747
  86 11  H  1S         -0.00004   0.02714  -0.05345   0.07696   0.07862
  87        2S         -0.00013   0.00311  -0.00856   0.01831   0.02603
  88 12  H  1S         -0.00004   0.02714  -0.05345   0.07696   0.07862
  89        2S         -0.00013   0.00311  -0.00856   0.01831   0.02603
  90 13  C  1S          0.01226  -0.05222  -0.09551  -0.11925   0.10024
  91        2S          0.00064   0.09812   0.18118   0.23060  -0.19780
  92        2PX        -0.00001  -0.03243  -0.04004  -0.00148  -0.05899
  93        2PY        -0.00001   0.00873   0.01317   0.00720   0.01139
  94        2PZ         0.00000   0.00000   0.00000   0.00000   0.00000
  95        3S         -0.00063   0.08092   0.16095   0.21016  -0.18503
  96        3PX         0.00023  -0.00646  -0.00956   0.00470  -0.02747
  97        3PY         0.00027  -0.00160  -0.00222  -0.00259   0.00285
  98        3PZ         0.00000   0.00000   0.00000   0.00000   0.00000
  99        4XX        -0.00004   0.00353   0.00380  -0.00149   0.00733
 100        4YY        -0.00003  -0.00075  -0.00075   0.00077  -0.00249
 101        4ZZ        -0.00011  -0.00140  -0.00151   0.00028  -0.00266
 102        4XY        -0.00002  -0.00178  -0.00183   0.00066  -0.00380
 103        4XZ         0.00000   0.00000   0.00000   0.00000   0.00000
 104        4YZ         0.00000   0.00000   0.00000   0.00000   0.00000
 105 14  H  1S          0.00004   0.02714   0.05345   0.07696  -0.07862
 106        2S          0.00013   0.00311   0.00856   0.01831  -0.02603
 107 15  H  1S         -0.00001   0.02537   0.05263   0.08084  -0.08536
 108        2S          0.00002   0.00525   0.01177   0.02167  -0.02747
 109 16  H  1S          0.00004   0.02714   0.05345   0.07696  -0.07862
 110        2S          0.00013   0.00311   0.00856   0.01831  -0.02603
                          11        12        13        14        15
                           O         O         O         O         O
     Eigenvalues --    -0.55260  -0.54541  -0.46415  -0.43906  -0.40852
   1 1   C  1S         -0.10299  -0.04896  -0.01471   0.01779   0.00000
   2        2S          0.21081   0.10010   0.03402  -0.03977   0.00000
   3        2PX         0.00779   0.02146  -0.01457  -0.20650   0.00000
   4        2PY         0.07963   0.15427  -0.22933  -0.10763   0.00000
   5        2PZ         0.00000   0.00000   0.00000   0.00000   0.11249
   6        3S          0.20582   0.09157   0.00282  -0.05007   0.00001
   7        3PX         0.01324   0.00208   0.01077  -0.09367   0.00000
   8        3PY         0.03163   0.05128  -0.06670  -0.02653   0.00000
   9        3PZ         0.00000   0.00000   0.00000   0.00000   0.05612
  10        4XX        -0.00981  -0.00218  -0.00397   0.00441   0.00000
  11        4YY         0.00606   0.00294  -0.00407  -0.00661   0.00000
  12        4ZZ        -0.00866  -0.00433  -0.00025   0.00132   0.00000
  13        4XY        -0.00067  -0.00554   0.00194   0.00189   0.00000
  14        4XZ         0.00000   0.00000   0.00000   0.00000   0.00417
  15        4YZ         0.00000   0.00000   0.00000   0.00000  -0.00469
  16 2   H  1S          0.12532   0.11864  -0.11100  -0.07354   0.00000
  17        2S          0.05891   0.07019  -0.08888  -0.05909   0.00000
  18 3   C  1S          0.05428   0.07425   0.00272  -0.00925   0.00000
  19        2S         -0.11204  -0.15099  -0.01002   0.02491   0.00000
  20        2PX         0.15553  -0.02612   0.24105   0.10400   0.00000
  21        2PY         0.05297   0.18728  -0.08991   0.20935   0.00000
  22        2PZ         0.00000   0.00000   0.00000   0.00000   0.07389
  23        3S         -0.10807  -0.15175   0.00974  -0.04052   0.00000
  24        3PX         0.03568   0.00154   0.08753   0.05222   0.00000
  25        3PY         0.01834   0.06176  -0.02302   0.05507   0.00000
  26        3PZ         0.00000   0.00000   0.00000   0.00000   0.03956
  27        4XX         0.00236   0.00555   0.00118  -0.00288   0.00000
  28        4YY        -0.00214  -0.00492   0.00087  -0.00587   0.00000
  29        4ZZ         0.00461   0.00637  -0.00019   0.00038   0.00000
  30        4XY         0.01210  -0.00123   0.00338  -0.00079   0.00000
  31        4XZ         0.00000   0.00000   0.00000   0.00000   0.00180
  32        4YZ         0.00000   0.00000   0.00000   0.00000   0.00208
  33 4   H  1S         -0.06684  -0.15769   0.05149  -0.10624   0.00000
  34        2S         -0.03122  -0.09022   0.03796  -0.08436   0.00000
  35 5   C  1S          0.05428  -0.07425   0.00272   0.00925   0.00000
  36        2S         -0.11204   0.15099  -0.01002  -0.02491   0.00000
  37        2PX        -0.15553  -0.02612  -0.24105   0.10400   0.00000
  38        2PY        -0.05297   0.18728   0.08991   0.20935   0.00000
  39        2PZ         0.00000   0.00000   0.00000   0.00000   0.07389
  40        3S         -0.10807   0.15175   0.00974   0.04052   0.00000
  41        3PX        -0.03568   0.00154  -0.08753   0.05222   0.00000
  42        3PY        -0.01834   0.06176   0.02302   0.05507   0.00000
  43        3PZ         0.00000   0.00000   0.00000   0.00000   0.03956
  44        4XX         0.00236  -0.00555   0.00118   0.00288   0.00000
  45        4YY        -0.00214   0.00492   0.00087   0.00587   0.00000
  46        4ZZ         0.00461  -0.00637  -0.00019  -0.00038   0.00000
  47        4XY         0.01210   0.00123   0.00338   0.00079   0.00000
  48        4XZ         0.00000   0.00000   0.00000   0.00000  -0.00180
  49        4YZ         0.00000   0.00000   0.00000   0.00000  -0.00208
  50 6   H  1S         -0.06684   0.15769   0.05149   0.10624   0.00000
  51        2S         -0.03122   0.09022   0.03796   0.08436   0.00000
  52 7   C  1S         -0.10299   0.04896  -0.01471  -0.01779   0.00000
  53        2S          0.21081  -0.10010   0.03402   0.03977   0.00000
  54        2PX        -0.00779   0.02146   0.01457  -0.20650   0.00000
  55        2PY        -0.07963   0.15427   0.22933  -0.10763   0.00000
  56        2PZ         0.00000   0.00000   0.00000   0.00000   0.11249
  57        3S          0.20582  -0.09157   0.00282   0.05007   0.00000
  58        3PX        -0.01324   0.00208  -0.01077  -0.09367   0.00000
  59        3PY        -0.03163   0.05128   0.06670  -0.02653   0.00000
  60        3PZ         0.00000   0.00000   0.00000   0.00000   0.05612
  61        4XX        -0.00981   0.00218  -0.00397  -0.00441   0.00000
  62        4YY         0.00606  -0.00294  -0.00407   0.00661   0.00000
  63        4ZZ        -0.00866   0.00433  -0.00025  -0.00132   0.00000
  64        4XY        -0.00067   0.00554   0.00194  -0.00189   0.00000
  65        4XZ         0.00000   0.00000   0.00000   0.00000  -0.00417
  66        4YZ         0.00000   0.00000   0.00000   0.00000   0.00469
  67 8   H  1S          0.12532  -0.11864  -0.11100   0.07354   0.00000
  68        2S          0.05891  -0.07019  -0.08888   0.05909   0.00000
  69 9   C  1S          0.04822  -0.01128   0.00700   0.00837   0.00000
  70        2S         -0.09592   0.02280  -0.01498  -0.01294   0.00000
  71        2PX         0.11447  -0.01783   0.12886   0.08733   0.00000
  72        2PY        -0.07360   0.06595   0.10993  -0.18536   0.00000
  73        2PZ         0.00000   0.00000   0.00000   0.00000   0.29855
  74        3S         -0.11403   0.01955  -0.01681  -0.04609   0.00000
  75        3PX         0.04034  -0.00493   0.06031   0.03176   0.00000
  76        3PY        -0.02361   0.03009   0.06029  -0.07807   0.00000
  77        3PZ         0.00000   0.00000   0.00000   0.00000   0.13827
  78        4XX         0.00849  -0.00214   0.00310   0.00557   0.00000
  79        4YY        -0.00157  -0.00168  -0.00669   0.00139   0.00000
  80        4ZZ        -0.00577   0.00317   0.00273  -0.00934   0.00000
  81        4XY        -0.00678   0.00314  -0.00419  -0.00136   0.00000
  82        4XZ         0.00000   0.00000   0.00000   0.00000  -0.00192
  83        4YZ         0.00000   0.00000   0.00000   0.00000   0.01505
  84 10  H  1S         -0.05230  -0.00767  -0.10217   0.03563   0.00000
  85        2S         -0.02224  -0.00294  -0.06719   0.03280   0.00000
  86 11  H  1S         -0.06937   0.02986   0.01668  -0.07829   0.15205
  87        2S         -0.03485   0.01663   0.01076  -0.05461   0.12534
  88 12  H  1S         -0.06937   0.02986   0.01668  -0.07829  -0.15204
  89        2S         -0.03485   0.01663   0.01076  -0.05461  -0.12534
  90 13  C  1S          0.04822   0.01128   0.00700  -0.00837   0.00000
  91        2S         -0.09592  -0.02280  -0.01498   0.01294   0.00000
  92        2PX        -0.11447  -0.01783  -0.12886   0.08733   0.00000
  93        2PY         0.07360   0.06595  -0.10993  -0.18536   0.00000
  94        2PZ         0.00000   0.00000   0.00000   0.00001   0.29855
  95        3S         -0.11403  -0.01955  -0.01681   0.04609   0.00000
  96        3PX        -0.04034  -0.00493  -0.06031   0.03176   0.00000
  97        3PY         0.02361   0.03009  -0.06029  -0.07807   0.00000
  98        3PZ         0.00000   0.00000   0.00000   0.00000   0.13827
  99        4XX         0.00849   0.00214   0.00310  -0.00557   0.00000
 100        4YY        -0.00157   0.00168  -0.00669  -0.00139  -0.00001
 101        4ZZ        -0.00577  -0.00317   0.00273   0.00934   0.00001
 102        4XY        -0.00678  -0.00314  -0.00419   0.00136   0.00000
 103        4XZ         0.00000   0.00000   0.00000   0.00000   0.00192
 104        4YZ         0.00000   0.00000   0.00000   0.00000  -0.01505
 105 14  H  1S         -0.06937  -0.02986   0.01669   0.07830  -0.15203
 106        2S         -0.03485  -0.01663   0.01077   0.05462  -0.12533
 107 15  H  1S         -0.05230   0.00767  -0.10217  -0.03563  -0.00003
 108        2S         -0.02224   0.00294  -0.06719  -0.03280  -0.00003
 109 16  H  1S         -0.06937  -0.02985   0.01667   0.07828   0.15206
 110        2S         -0.03485  -0.01663   0.01075   0.05461   0.12535
                          16        17        18        19        20
                           O         O         O         O         O
     Eigenvalues --    -0.40595  -0.39673  -0.39034  -0.35585  -0.34957
   1 1   C  1S          0.00000   0.02377  -0.01204  -0.00958   0.00530
   2        2S          0.00000  -0.05317   0.01966   0.01891  -0.01514
   3        2PX         0.00000  -0.17655  -0.19200  -0.21202  -0.03982
   4        2PY         0.00000   0.09975   0.03497  -0.11797   0.24040
   5        2PZ        -0.10004   0.00000   0.00000   0.00000   0.00000
   6        3S         -0.00001  -0.06075   0.09860   0.06082  -0.00265
   7        3PX         0.00000  -0.03741  -0.07925  -0.05929   0.00335
   8        3PY         0.00000   0.03029  -0.00477  -0.06107   0.08591
   9        3PZ        -0.04927   0.00000   0.00000   0.00000   0.00000
  10        4XX         0.00000   0.00174  -0.00189   0.00359  -0.01302
  11        4YY         0.00000   0.00284   0.00074  -0.00780   0.01853
  12        4ZZ         0.00000   0.00094  -0.00085  -0.00090   0.00046
  13        4XY         0.00000   0.00994  -0.00227   0.01216  -0.00456
  14        4XZ        -0.00567   0.00000   0.00000   0.00000   0.00000
  15        4YZ         0.00424   0.00000   0.00000   0.00000   0.00000
  16 2   H  1S          0.00000   0.04329   0.03709  -0.06623   0.16821
  17        2S          0.00000   0.04626   0.01869  -0.06691   0.16556
  18 3   C  1S          0.00000  -0.04188   0.00527  -0.01054   0.00037
  19        2S          0.00000   0.08767  -0.00589   0.02303  -0.00348
  20        2PX         0.00000   0.02712   0.01711   0.23399  -0.08032
  21        2PY         0.00000  -0.00209   0.21608   0.08872  -0.11490
  22        2PZ        -0.03476   0.00000  -0.00001   0.00000   0.00000
  23        3S          0.00000   0.13547  -0.06949   0.00194   0.02569
  24        3PX         0.00000  -0.00506  -0.03893   0.05215  -0.03341
  25        3PY         0.00000   0.01495   0.04224   0.00328  -0.02850
  26        3PZ        -0.02247   0.00000   0.00000   0.00000   0.00000
  27        4XX         0.00000  -0.01150   0.00710   0.00233  -0.00570
  28        4YY         0.00000   0.00663  -0.01232  -0.00693   0.01044
  29        4ZZ         0.00000  -0.00270   0.00124  -0.00033  -0.00030
  30        4XY         0.00000   0.00330   0.00824   0.00964   0.00305
  31        4XZ        -0.00435   0.00000   0.00000   0.00000   0.00000
  32        4YZ        -0.00113   0.00000   0.00000   0.00000   0.00000
  33 4   H  1S          0.00000   0.04933  -0.14419  -0.04963   0.08018
  34        2S          0.00000   0.03472  -0.13001  -0.07136   0.08301
  35 5   C  1S          0.00000   0.04188   0.00527  -0.01054  -0.00037
  36        2S          0.00000  -0.08767  -0.00589   0.02303   0.00348
  37        2PX         0.00000   0.02712  -0.01711  -0.23399  -0.08032
  38        2PY         0.00001  -0.00209  -0.21608  -0.08872  -0.11490
  39        2PZ         0.03476   0.00000   0.00000   0.00000   0.00000
  40        3S          0.00000  -0.13547  -0.06949   0.00194  -0.02569
  41        3PX         0.00000  -0.00506   0.03893  -0.05215  -0.03341
  42        3PY         0.00000   0.01495  -0.04224  -0.00328  -0.02850
  43        3PZ         0.02247   0.00000   0.00000   0.00000   0.00000
  44        4XX         0.00000   0.01150   0.00710   0.00233   0.00570
  45        4YY         0.00000  -0.00663  -0.01232  -0.00693  -0.01044
  46        4ZZ         0.00000   0.00270   0.00124  -0.00033   0.00030
  47        4XY         0.00000  -0.00330   0.00824   0.00964  -0.00305
  48        4XZ        -0.00435   0.00000   0.00000   0.00000   0.00000
  49        4YZ        -0.00113   0.00000   0.00000   0.00000   0.00000
  50 6   H  1S          0.00000  -0.04933  -0.14419  -0.04963  -0.08018
  51        2S          0.00000  -0.03472  -0.13001  -0.07136  -0.08301
  52 7   C  1S          0.00000  -0.02377  -0.01204  -0.00958  -0.00530
  53        2S          0.00000   0.05317   0.01966   0.01891   0.01514
  54        2PX        -0.00001  -0.17655   0.19200   0.21202  -0.03982
  55        2PY         0.00000   0.09975  -0.03497   0.11797   0.24040
  56        2PZ         0.10004   0.00000   0.00000   0.00000   0.00000
  57        3S          0.00000   0.06075   0.09860   0.06082   0.00265
  58        3PX         0.00000  -0.03741   0.07925   0.05929   0.00335
  59        3PY         0.00000   0.03029   0.00477   0.06107   0.08591
  60        3PZ         0.04927   0.00000   0.00000   0.00000   0.00000
  61        4XX         0.00000  -0.00174  -0.00189   0.00359   0.01302
  62        4YY         0.00000  -0.00284   0.00074  -0.00780  -0.01853
  63        4ZZ         0.00000  -0.00094  -0.00085  -0.00090  -0.00046
  64        4XY         0.00000  -0.00994  -0.00227   0.01216   0.00456
  65        4XZ        -0.00567   0.00000   0.00000   0.00000   0.00000
  66        4YZ         0.00424   0.00000   0.00000   0.00000   0.00000
  67 8   H  1S          0.00000  -0.04329   0.03709  -0.06623  -0.16821
  68        2S          0.00000  -0.04626   0.01869  -0.06691  -0.16556
  69 9   C  1S          0.00000  -0.00483   0.00205   0.00719  -0.01105
  70        2S          0.00000   0.01113  -0.00467  -0.01494   0.02265
  71        2PX         0.00000   0.28128  -0.06571  -0.19693   0.05462
  72        2PY        -0.00001   0.11823   0.23287  -0.13846  -0.21811
  73        2PZ         0.30711   0.00000   0.00001   0.00000   0.00000
  74        3S          0.00000   0.03594  -0.01706  -0.04832   0.05869
  75        3PX         0.00000   0.13451  -0.04257  -0.10605   0.03260
  76        3PY         0.00000   0.05072   0.10845  -0.05615  -0.11104
  77        3PZ         0.14377   0.00000   0.00000   0.00000   0.00000
  78        4XX         0.00000   0.00044  -0.00881   0.00666   0.01196
  79        4YY         0.00000  -0.00690   0.00030   0.00148  -0.00415
  80        4ZZ         0.00000   0.00261   0.01163  -0.00522  -0.01087
  81        4XY         0.00000  -0.01445  -0.00447   0.01545   0.00874
  82        4XZ        -0.00239   0.00000   0.00000   0.00000   0.00000
  83        4YZ         0.01567   0.00000   0.00000   0.00000   0.00000
  84 10  H  1S          0.00000  -0.17813  -0.08314   0.16098   0.09884
  85        2S          0.00000  -0.15398  -0.07413   0.15536   0.08741
  86 11  H  1S          0.15717   0.01904   0.09145  -0.04313  -0.08525
  87        2S          0.12945   0.01410   0.07513  -0.04219  -0.08715
  88 12  H  1S         -0.15717   0.01904   0.09145  -0.04314  -0.08525
  89        2S         -0.12945   0.01410   0.07512  -0.04220  -0.08715
  90 13  C  1S          0.00000   0.00483   0.00205   0.00719   0.01105
  91        2S          0.00000  -0.01113  -0.00467  -0.01494  -0.02265
  92        2PX         0.00000   0.28128   0.06571   0.19693   0.05462
  93        2PY         0.00000   0.11823  -0.23287   0.13846  -0.21811
  94        2PZ        -0.30711   0.00000   0.00000   0.00000   0.00001
  95        3S          0.00000  -0.03594  -0.01706  -0.04832  -0.05869
  96        3PX         0.00000   0.13451   0.04257   0.10605   0.03260
  97        3PY         0.00000   0.05072  -0.10845   0.05615  -0.11104
  98        3PZ        -0.14377   0.00000   0.00000   0.00000   0.00000
  99        4XX         0.00000  -0.00044  -0.00881   0.00666  -0.01196
 100        4YY         0.00001   0.00690   0.00030   0.00148   0.00415
 101        4ZZ        -0.00001  -0.00261   0.01163  -0.00522   0.01087
 102        4XY         0.00000   0.01445  -0.00447   0.01545  -0.00874
 103        4XZ        -0.00239   0.00000   0.00000   0.00000   0.00000
 104        4YZ         0.01567   0.00000   0.00000   0.00000   0.00000
 105 14  H  1S          0.15715  -0.01906   0.09147  -0.04315   0.08527
 106        2S          0.12944  -0.01412   0.07514  -0.04221   0.08717
 107 15  H  1S          0.00003   0.17813  -0.08314   0.16098  -0.09884
 108        2S          0.00003   0.15398  -0.07413   0.15536  -0.08741
 109 16  H  1S         -0.15718  -0.01902   0.09143  -0.04311   0.08523
 110        2S         -0.12947  -0.01408   0.07511  -0.04218   0.08714
                          21        22        23        24        25
                           O         O         O         V         V
     Eigenvalues --    -0.33320  -0.29920  -0.20553  -0.01340   0.08239
   1 1   C  1S         -0.00804   0.00000   0.00000   0.00000   0.00000
   2        2S          0.02293   0.00000   0.00000   0.00000   0.00000
   3        2PX         0.11088   0.00000   0.00000   0.00000   0.00000
   4        2PY        -0.16257   0.00000   0.00000   0.00000  -0.00001
   5        2PZ         0.00000   0.19209   0.32797   0.35629  -0.19778
   6        3S          0.00959   0.00000  -0.00001  -0.00001  -0.00001
   7        3PX         0.02758   0.00000   0.00000   0.00000   0.00000
   8        3PY        -0.04234   0.00000   0.00001  -0.00001   0.00001
   9        3PZ         0.00000   0.12796   0.26702   0.40371  -0.37121
  10        4XX         0.01450   0.00000   0.00000   0.00000   0.00000
  11        4YY        -0.01863   0.00000   0.00000   0.00000   0.00000
  12        4ZZ         0.00012   0.00000   0.00000   0.00000   0.00000
  13        4XY        -0.00392   0.00000   0.00000   0.00000   0.00000
  14        4XZ         0.00000  -0.01388  -0.01123   0.01095  -0.01735
  15        4YZ         0.00000  -0.00419  -0.00433   0.00814  -0.01735
  16 2   H  1S         -0.13145   0.00000   0.00000   0.00000   0.00000
  17        2S         -0.15862   0.00000   0.00000   0.00001   0.00001
  18 3   C  1S         -0.01961   0.00000   0.00000   0.00000   0.00000
  19        2S          0.04691   0.00000   0.00000   0.00000   0.00000
  20        2PX        -0.16809   0.00000   0.00000   0.00000   0.00000
  21        2PY         0.21345   0.00001   0.00000   0.00000  -0.00001
  22        2PZ         0.00000   0.32208   0.23978  -0.23374   0.35016
  23        3S          0.08221   0.00000   0.00000  -0.00001   0.00002
  24        3PX        -0.05142   0.00000   0.00001   0.00000   0.00001
  25        3PY         0.06428   0.00000   0.00000   0.00000  -0.00001
  26        3PZ         0.00000   0.20628   0.16899  -0.27971   0.61334
  27        4XX         0.01560   0.00000   0.00000   0.00000   0.00000
  28        4YY        -0.02211   0.00000   0.00000   0.00000   0.00000
  29        4ZZ        -0.00041   0.00000   0.00000   0.00000   0.00000
  30        4XY        -0.00369   0.00000   0.00000   0.00000   0.00000
  31        4XZ         0.00000  -0.00392   0.02022   0.02431   0.00719
  32        4YZ         0.00000   0.00776   0.00549   0.00477  -0.01897
  33 4   H  1S         -0.15900   0.00000   0.00000   0.00000   0.00000
  34        2S         -0.19922   0.00000   0.00000   0.00001  -0.00003
  35 5   C  1S         -0.01961   0.00000   0.00000   0.00000   0.00000
  36        2S          0.04691   0.00000   0.00000   0.00000   0.00000
  37        2PX         0.16809   0.00000   0.00000   0.00000   0.00000
  38        2PY        -0.21345  -0.00001   0.00000   0.00000   0.00000
  39        2PZ         0.00000   0.32208  -0.23978  -0.23374  -0.35016
  40        3S          0.08221   0.00000   0.00000   0.00000   0.00000
  41        3PX         0.05142   0.00000   0.00000   0.00000   0.00001
  42        3PY        -0.06428   0.00000   0.00000   0.00000   0.00000
  43        3PZ         0.00000   0.20628  -0.16899  -0.27971  -0.61334
  44        4XX         0.01560   0.00000   0.00000   0.00000   0.00000
  45        4YY        -0.02211   0.00000   0.00000   0.00000   0.00000
  46        4ZZ        -0.00041   0.00000   0.00000   0.00000   0.00000
  47        4XY        -0.00369   0.00000   0.00000   0.00000   0.00000
  48        4XZ         0.00000   0.00392   0.02022  -0.02431   0.00719
  49        4YZ         0.00000  -0.00776   0.00549  -0.00477  -0.01897
  50 6   H  1S         -0.15900   0.00000   0.00000   0.00000   0.00000
  51        2S         -0.19922   0.00000   0.00000   0.00000   0.00001
  52 7   C  1S         -0.00804   0.00000   0.00000   0.00000   0.00000
  53        2S          0.02293   0.00000   0.00000   0.00000   0.00000
  54        2PX        -0.11088   0.00000   0.00000   0.00000   0.00000
  55        2PY         0.16257   0.00000   0.00000   0.00000   0.00000
  56        2PZ         0.00000   0.19209  -0.32797   0.35629   0.19778
  57        3S          0.00959   0.00000   0.00000   0.00000   0.00001
  58        3PX        -0.02758   0.00000   0.00000   0.00000   0.00000
  59        3PY         0.04234   0.00000   0.00000   0.00000  -0.00001
  60        3PZ         0.00000   0.12796  -0.26702   0.40371   0.37121
  61        4XX         0.01450   0.00000   0.00000   0.00000   0.00000
  62        4YY        -0.01863   0.00000   0.00000   0.00000   0.00000
  63        4ZZ         0.00012   0.00000   0.00000   0.00000   0.00000
  64        4XY        -0.00392   0.00000   0.00000   0.00000   0.00000
  65        4XZ         0.00000   0.01388  -0.01123  -0.01095  -0.01735
  66        4YZ         0.00000   0.00419  -0.00433  -0.00814  -0.01735
  67 8   H  1S         -0.13145   0.00000   0.00000   0.00000   0.00000
  68        2S         -0.15862   0.00000   0.00000   0.00000  -0.00001
  69 9   C  1S         -0.01821   0.00000   0.00000   0.00000   0.00000
  70        2S          0.03911   0.00000   0.00000   0.00000   0.00000
  71        2PX         0.15902   0.00000   0.00000   0.00000   0.00000
  72        2PY        -0.09849   0.00000   0.00000   0.00000   0.00000
  73        2PZ         0.00000  -0.10506   0.08181  -0.00064   0.08421
  74        3S          0.08984   0.00000   0.00000   0.00000   0.00000
  75        3PX         0.08238   0.00000   0.00000   0.00000  -0.00001
  76        3PY        -0.05910   0.00000   0.00000   0.00000  -0.00001
  77        3PZ         0.00000  -0.06278   0.04689   0.10128   0.24417
  78        4XX         0.00610   0.00000   0.00000   0.00000   0.00000
  79        4YY        -0.00518   0.00000   0.00000   0.00000   0.00000
  80        4ZZ        -0.00518   0.00000   0.00000   0.00000   0.00000
  81        4XY        -0.00138   0.00000   0.00000   0.00000   0.00000
  82        4XZ         0.00000   0.00814  -0.01365   0.01722   0.00950
  83        4YZ         0.00000  -0.00895   0.01150  -0.01506  -0.01396
  84 10  H  1S         -0.00852   0.00000   0.00000   0.00000   0.00000
  85        2S         -0.02183   0.00000   0.00000   0.00000  -0.00001
  86 11  H  1S         -0.04171  -0.06910   0.07373  -0.06997  -0.05041
  87        2S         -0.05092  -0.06504   0.09075  -0.22561  -0.36917
  88 12  H  1S         -0.04171   0.06910  -0.07372   0.06997   0.05041
  89        2S         -0.05092   0.06503  -0.09075   0.22561   0.36918
  90 13  C  1S         -0.01821   0.00000   0.00000   0.00000   0.00000
  91        2S          0.03911   0.00000   0.00000   0.00000   0.00000
  92        2PX        -0.15902   0.00000   0.00000   0.00000   0.00000
  93        2PY         0.09849   0.00000   0.00000   0.00000  -0.00002
  94        2PZ         0.00000  -0.10506  -0.08181  -0.00064  -0.08421
  95        3S          0.08984   0.00000   0.00000   0.00000   0.00003
  96        3PX        -0.08238   0.00000   0.00000   0.00000  -0.00003
  97        3PY         0.05910  -0.00001  -0.00001   0.00002  -0.00008
  98        3PZ        -0.00001  -0.06278  -0.04689   0.10128  -0.24417
  99        4XX         0.00610   0.00000   0.00000   0.00000   0.00000
 100        4YY        -0.00518   0.00000   0.00000   0.00000   0.00000
 101        4ZZ        -0.00518   0.00000   0.00000   0.00000   0.00000
 102        4XY        -0.00138   0.00000   0.00000   0.00000   0.00000
 103        4XZ         0.00000  -0.00814  -0.01365  -0.01722   0.00950
 104        4YZ         0.00000   0.00895   0.01150   0.01506  -0.01396
 105 14  H  1S         -0.04171   0.06909   0.07372   0.06996  -0.05041
 106        2S         -0.05092   0.06503   0.09074   0.22560  -0.36920
 107 15  H  1S         -0.00852   0.00001   0.00001   0.00001   0.00000
 108        2S         -0.02183   0.00002   0.00002   0.00002   0.00002
 109 16  H  1S         -0.04170  -0.06910  -0.07373  -0.06997   0.05041
 110        2S         -0.05091  -0.06504  -0.09077  -0.22563   0.36915
                          26        27        28        29        30
                           V         V         V         V         V
     Eigenvalues --     0.10826   0.11944   0.12357   0.14018   0.15756
   1 1   C  1S          0.04352   0.00076  -0.01762   0.04712  -0.03265
   2        2S         -0.06153  -0.01866   0.04141  -0.04601   0.01612
   3        2PX         0.02148   0.00291  -0.01703  -0.06085   0.05424
   4        2PY        -0.18367   0.00216   0.07193  -0.14819  -0.00756
   5        2PZ         0.00001  -0.00001   0.00000   0.00000   0.00002
   6        3S         -0.70939  -0.09602   0.49905  -0.78928   0.68602
   7        3PX         0.06746   0.24256  -0.36033  -0.12766   0.09068
   8        3PY        -0.39420   0.01470   0.13495  -0.41000  -0.18565
   9        3PZ         0.00001  -0.00002   0.00001  -0.00002   0.00008
  10        4XX        -0.01064  -0.00517   0.00890   0.00402  -0.00529
  11        4YY         0.01486  -0.00347   0.00115   0.00942  -0.01040
  12        4ZZ         0.00359   0.00238  -0.00450  -0.00044   0.00254
  13        4XY        -0.00022  -0.00092   0.00034  -0.01207   0.01368
  14        4XZ         0.00000   0.00000   0.00000   0.00000   0.00000
  15        4YZ         0.00000   0.00000   0.00000   0.00000   0.00000
  16 2   H  1S          0.05759  -0.02125   0.00444   0.04460  -0.03892
  17        2S          0.96000  -0.03810  -0.35337   0.87637  -0.12230
  18 3   C  1S         -0.01048   0.04004   0.00040   0.01961  -0.05130
  19        2S          0.00782  -0.08529   0.02307  -0.01496   0.07324
  20        2PX         0.05693   0.02638   0.03763  -0.01591  -0.03192
  21        2PY        -0.13933   0.10502  -0.05187   0.08408  -0.13610
  22        2PZ        -0.00001   0.00001   0.00000  -0.00001  -0.00001
  23        3S          0.18202  -0.35986  -0.18670  -0.42279   0.70731
  24        3PX         0.23163   0.17553  -0.20389  -0.08541  -0.34070
  25        3PY        -0.27054   0.34041  -0.42323   0.32143  -0.32247
  26        3PZ        -0.00001   0.00001   0.00000   0.00000  -0.00003
  27        4XX         0.01387   0.00320  -0.00591   0.00860  -0.00079
  28        4YY        -0.01175   0.00005   0.00935  -0.00231  -0.01373
  29        4ZZ        -0.00363   0.00150   0.00085  -0.00020  -0.00021
  30        4XY        -0.00598  -0.00549   0.00224   0.00036   0.01298
  31        4XZ         0.00000   0.00000   0.00000   0.00000   0.00000
  32        4YZ         0.00000   0.00000   0.00000   0.00000   0.00000
  33 4   H  1S         -0.05151   0.01117   0.04096  -0.01877  -0.07583
  34        2S         -0.61103   0.66179  -0.26553   0.40826  -0.86701
  35 5   C  1S          0.01048  -0.04004   0.00040   0.01961   0.05130
  36        2S         -0.00782   0.08529   0.02307  -0.01496  -0.07324
  37        2PX         0.05693   0.02638  -0.03763   0.01591  -0.03192
  38        2PY        -0.13933   0.10502   0.05187  -0.08408  -0.13610
  39        2PZ         0.00001   0.00000   0.00000   0.00001   0.00000
  40        3S         -0.18202   0.35986  -0.18670  -0.42279  -0.70731
  41        3PX         0.23163   0.17553   0.20389   0.08541  -0.34070
  42        3PY        -0.27054   0.34041   0.42323  -0.32143  -0.32247
  43        3PZ         0.00001  -0.00001   0.00001   0.00000   0.00001
  44        4XX        -0.01387  -0.00320  -0.00591   0.00860   0.00079
  45        4YY         0.01175  -0.00005   0.00935  -0.00231   0.01373
  46        4ZZ         0.00363  -0.00150   0.00085  -0.00020   0.00021
  47        4XY         0.00598   0.00549   0.00224   0.00036  -0.01298
  48        4XZ         0.00000   0.00000   0.00000   0.00000   0.00000
  49        4YZ         0.00000   0.00000   0.00000   0.00000   0.00000
  50 6   H  1S          0.05151  -0.01117   0.04096  -0.01877   0.07583
  51        2S          0.61103  -0.66179  -0.26553   0.40826   0.86701
  52 7   C  1S         -0.04352  -0.00076  -0.01762   0.04712   0.03265
  53        2S          0.06153   0.01866   0.04141  -0.04601  -0.01612
  54        2PX         0.02148   0.00291   0.01703   0.06085   0.05424
  55        2PY        -0.18367   0.00216  -0.07193   0.14819  -0.00756
  56        2PZ        -0.00001   0.00000   0.00000   0.00000   0.00000
  57        3S          0.70939   0.09602   0.49905  -0.78928  -0.68602
  58        3PX         0.06746   0.24256   0.36033   0.12766   0.09068
  59        3PY        -0.39420   0.01470  -0.13495   0.41000  -0.18565
  60        3PZ        -0.00001   0.00001   0.00000   0.00000  -0.00002
  61        4XX         0.01064   0.00517   0.00890   0.00402   0.00529
  62        4YY        -0.01486   0.00347   0.00115   0.00942   0.01040
  63        4ZZ        -0.00359  -0.00238  -0.00450  -0.00044  -0.00254
  64        4XY         0.00022   0.00092   0.00034  -0.01207  -0.01368
  65        4XZ         0.00000   0.00000   0.00000   0.00000   0.00000
  66        4YZ         0.00000   0.00000   0.00000   0.00000   0.00000
  67 8   H  1S         -0.05759   0.02125   0.00444   0.04460   0.03892
[...]
 106        2S          0.01144   0.00124   0.01947   0.03902   0.01186
 107 15  H  1S          0.02785   0.04590   0.05199   0.00000   0.03113
 108        2S          0.01261   0.02838   0.03289   0.00000   0.00759
 109 16  H  1S          0.02720   0.00216   0.03128   0.06264   0.03425
 110        2S          0.01144   0.00124   0.01945   0.03903   0.01186
                          96        97        98        99       100
  96        3PX         0.09243
  97        3PY         0.00000   0.08905
  98        3PZ         0.00000   0.00000   0.09185
  99        4XX         0.00000   0.00000   0.00000   0.00117
 100        4YY         0.00000   0.00000   0.00000  -0.00003   0.00047
 101        4ZZ         0.00000   0.00000   0.00000  -0.00023   0.00008
 102        4XY         0.00000   0.00000   0.00000   0.00000   0.00000
 103        4XZ         0.00000   0.00000   0.00000   0.00000   0.00000
 104        4YZ         0.00000   0.00000   0.00000   0.00000   0.00000
 105 14  H  1S          0.00155   0.02090   0.04249  -0.00094   0.00020
 106        2S          0.00136   0.02026   0.04154  -0.00217   0.00031
 107 15  H  1S          0.03152   0.03327   0.00000   0.00103   0.00123
 108        2S          0.03043   0.03276   0.00000   0.00166   0.00126
 109 16  H  1S          0.00156   0.02088   0.04251  -0.00094   0.00019
 110        2S          0.00137   0.02024   0.04156  -0.00217   0.00031
                         101       102       103       104       105
 101        4ZZ         0.00109
 102        4XY         0.00000   0.00129
 103        4XZ         0.00000   0.00000   0.00052
 104        4YZ         0.00000   0.00000   0.00000   0.00137
 105 14  H  1S          0.00256   0.00013   0.00034   0.00332   0.21086
 106        2S          0.00254   0.00004   0.00009   0.00072   0.10594
 107 15  H  1S         -0.00081   0.00423   0.00000   0.00000  -0.00042
 108        2S         -0.00228   0.00087   0.00000   0.00000  -0.00628
 109 16  H  1S          0.00256   0.00013   0.00034   0.00332  -0.00042
 110        2S          0.00254   0.00004   0.00009   0.00072  -0.00634
                         106       107       108       109       110
 106        2S          0.13688
 107 15  H  1S         -0.00636   0.21227
 108        2S         -0.01739   0.10730   0.13790
 109 16  H  1S         -0.00634  -0.00042  -0.00628   0.21086
 110        2S         -0.01749  -0.00636  -0.01739   0.10594   0.13688
     Gross orbital populations:
                           1
   1 1   C  1S          1.99181
   2        2S          0.70715
   3        2PX         0.74450
   4        2PY         0.73595
   5        2PZ         0.56360
   6        3S          0.53054
   7        3PX         0.19505
   8        3PY         0.21779
   9        3PZ         0.43957
  10        4XX         0.00304
  11        4YY         0.01213
  12        4ZZ        -0.02452
  13        4XY         0.00951
  14        4XZ         0.00637
  15        4YZ         0.00142
  16 2   H  1S          0.53224
  17        2S          0.34298
  18 3   C  1S          1.99183
  19        2S          0.71091
  20        2PX         0.75899
  21        2PY         0.73777
  22        2PZ         0.57270
  23        3S          0.50325
  24        3PX         0.20052
  25        3PY         0.18164
  26        3PZ         0.42306
  27        4XX         0.00288
  28        4YY         0.01228
  29        4ZZ        -0.02451
  30        4XY         0.00931
  31        4XZ         0.00743
  32        4YZ         0.00169
  33 4   H  1S          0.53298
  34        2S          0.35508
  35 5   C  1S          1.99183
  36        2S          0.71091
  37        2PX         0.75899
  38        2PY         0.73777
  39        2PZ         0.57270
  40        3S          0.50325
  41        3PX         0.20052
  42        3PY         0.18164
  43        3PZ         0.42306
  44        4XX         0.00288
  45        4YY         0.01228
  46        4ZZ        -0.02451
  47        4XY         0.00931
  48        4XZ         0.00743
  49        4YZ         0.00169
  50 6   H  1S          0.53298
  51        2S          0.35508
  52 7   C  1S          1.99181
  53        2S          0.70715
  54        2PX         0.74450
  55        2PY         0.73595
  56        2PZ         0.56360
  57        3S          0.53054
  58        3PX         0.19505
  59        3PY         0.21779
  60        3PZ         0.43957
  61        4XX         0.00304
  62        4YY         0.01213
  63        4ZZ        -0.02452
  64        4XY         0.00951
  65        4XZ         0.00637
  66        4YZ         0.00142
  67 8   H  1S          0.53224
  68        2S          0.34298
  69 9   C  1S          1.99184
  70        2S          0.67687
  71        2PX         0.70032
  72        2PY         0.71695
  73        2PZ         0.71633
  74        3S          0.63818
  75        3PX         0.31361
  76        3PY         0.34381
  77        3PZ         0.36073
  78        4XX        -0.00019
  79        4YY         0.00076
  80        4ZZ         0.00444
  81        4XY         0.00990
  82        4XZ         0.00391
  83        4YZ         0.00984
  84 10  H  1S          0.52719
  85        2S          0.32267
  86 11  H  1S          0.52292
  87        2S          0.31504
  88 12  H  1S          0.52292
  89        2S          0.31504
  90 13  C  1S          1.99184
  91        2S          0.67687
  92        2PX         0.70032
  93        2PY         0.71695
  94        2PZ         0.71633
  95        3S          0.63818
  96        3PX         0.31361
  97        3PY         0.34381
  98        3PZ         0.36073
  99        4XX        -0.00019
 100        4YY         0.00076
 101        4ZZ         0.00444
 102        4XY         0.00990
 103        4XZ         0.00391
 104        4YZ         0.00984
 105 14  H  1S          0.52292
 106        2S          0.31504
 107 15  H  1S          0.52719
 108        2S          0.32267
 109 16  H  1S          0.52292
 110        2S          0.31504
          Condensed to atoms (all electrons):
               1          2          3          4          5          6
     1  C    4.940833   0.367410   0.640464  -0.061684  -0.015017  -0.006841
     2  H    0.367410   0.603405  -0.043761   0.006688  -0.010664   0.006222
     3  C    0.640464  -0.043761   4.803110   0.364467   0.437968  -0.052902
     4  H   -0.061684   0.006688   0.364467   0.629748  -0.052902   0.005753
     5  C   -0.015017  -0.010664   0.437968  -0.052902   4.803110   0.364467
     6  H   -0.006841   0.006222  -0.052902   0.005753   0.364467   0.629748
     7  C    0.002713   0.000406  -0.015017  -0.006841   0.640464  -0.061684
     8  H    0.000406   0.000015  -0.010664   0.006222  -0.043761   0.006688
     9  C   -0.000206  -0.000003   0.003699   0.000077  -0.027085  -0.007266
    10  H    0.000001   0.000000  -0.000125   0.000002   0.002974   0.000056
    11  H    0.000011   0.000000   0.000018   0.000004  -0.006717   0.001868
    12  H    0.000011   0.000000   0.000018   0.000004  -0.006717   0.001868
    13  C    0.354159  -0.056368  -0.027085  -0.007266   0.003699   0.000077
    14  H   -0.032829   0.003559  -0.006717   0.001869   0.000018   0.000004
    15  H   -0.022685  -0.005245   0.002974   0.000056  -0.000125   0.000002
    16  H   -0.032829   0.003559  -0.006717   0.001867   0.000018   0.000004
               7          8          9         10         11         12
     1  C    0.002713   0.000406  -0.000206   0.000001   0.000011   0.000011
     2  H    0.000406   0.000015  -0.000003   0.000000   0.000000   0.000000
     3  C   -0.015017  -0.010664   0.003699  -0.000125   0.000018   0.000018
     4  H   -0.006841   0.006222   0.000077   0.000002   0.000004   0.000004
     5  C    0.640464  -0.043761  -0.027085   0.002974  -0.006717  -0.006717
     6  H   -0.061684   0.006688  -0.007266   0.000056   0.001868   0.001868
     7  C    4.940833   0.367410   0.354159  -0.022685  -0.032829  -0.032829
     8  H    0.367410   0.603405  -0.056368  -0.005245   0.003559   0.003559
     9  C    0.354159  -0.056368   5.102321   0.371027   0.373466   0.373466
    10  H   -0.022685  -0.005245   0.371027   0.564768  -0.030456  -0.030456
    11  H   -0.032829   0.003559   0.373466  -0.030456   0.559623  -0.030587
    12  H   -0.032829   0.003559   0.373466  -0.030456  -0.030587   0.559622
    13  C   -0.000206  -0.000003   0.000001   0.000000   0.000000   0.000000
    14  H    0.000011   0.000000   0.000000   0.000000   0.000000   0.000000
    15  H    0.000001   0.000000   0.000000   0.000000   0.000000   0.000000
    16  H    0.000011   0.000000   0.000000   0.000000   0.000000   0.000000
              13         14         15         16
     1  C    0.354159  -0.032829  -0.022685  -0.032829
     2  H   -0.056368   0.003559  -0.005245   0.003559
     3  C   -0.027085  -0.006717   0.002974  -0.006717
     4  H   -0.007266   0.001869   0.000056   0.001867
     5  C    0.003699   0.000018  -0.000125   0.000018
     6  H    0.000077   0.000004   0.000002   0.000004
     7  C   -0.000206   0.000011   0.000001   0.000011
     8  H   -0.000003   0.000000   0.000000   0.000000
     9  C    0.000001   0.000000   0.000000   0.000000
    10  H    0.000000   0.000000   0.000000   0.000000
    11  H    0.000000   0.000000   0.000000   0.000000
    12  H    0.000000   0.000000   0.000000   0.000000
    13  C    5.102321   0.373467   0.371027   0.373465
    14  H    0.373467   0.559621  -0.030455  -0.030587
    15  H    0.371027  -0.030455   0.564768  -0.030457
    16  H    0.373465  -0.030587  -0.030457   0.559624
 Mulliken charges:
               1
     1  C   -0.133917
     2  H    0.124777
     3  C   -0.089731
     4  H    0.111938
     5  C   -0.089731
     6  H    0.111938
     7  C   -0.133917
     8  H    0.124777
     9  C   -0.487289
    10  H    0.150140
    11  H    0.162041
    12  H    0.162041
    13  C   -0.487289
    14  H    0.162040
    15  H    0.150140
    16  H    0.162042
 Sum of Mulliken charges =   0.00000
 Mulliken charges with hydrogens summed into heavy atoms:
               1
     1  C   -0.009140
     3  C    0.022207
     5  C    0.022207
     7  C   -0.009140
     9  C   -0.013067
    13  C   -0.013067
 Electronic spatial extent (au):  <R**2>=           1042.8286
 Charge=              0.0000 electrons
 Dipole moment (field-independent basis, Debye):
    X=              0.0000    Y=              0.0000    Z=              0.0000  Tot=              0.0000
 Quadrupole moment (field-independent basis, Debye-Ang):
   XX=            -34.3283   YY=            -35.8679   ZZ=            -40.3693
   XY=              0.0350   XZ=              0.0000   YZ=              0.0000
 Traceless Quadrupole moment (field-independent basis, Debye-Ang):
   XX=              2.5269   YY=              0.9872   ZZ=             -3.5141
   XY=              0.0350   XZ=              0.0000   YZ=              0.0000
 Octapole moment (field-independent basis, Debye-Ang**2):
  XXX=              0.0000  YYY=              0.0000  ZZZ=              0.0003  XYY=              0.0000
  XXY=              0.0000  XXZ=              0.0001  XZZ=              0.0000  YZZ=              0.0000
  YYZ=             -0.0003  XYZ=             -0.0002
 Hexadecapole moment (field-independent basis, Debye-Ang**3):
 XXXX=          -1239.0639 YYYY=           -103.5747 ZZZZ=            -54.9165 XXXY=              8.2812
 XXXZ=              0.0000 YYYX=              3.0369 YYYZ=              0.0002 ZZZX=              0.0009
 ZZZY=             -0.0001 XXYY=           -221.4639 XXZZ=           -221.9346 YYZZ=            -27.3310
 XXYZ=             -0.0006 YYXZ=             -0.0007 ZZXY=             -5.0110
 N-N= 2.074564627351D+02 E-N=-9.569935179710D+02  KE= 2.322272522021D+02
 Orbital energies and kinetic energies (alpha):
                                 1                 2
   1         O               -10.182638         15.879585
   2         O               -10.182635         15.879824
   3         O               -10.179065         15.882451
   4         O               -10.179064         15.882211
   5         O               -10.178692         15.877689
   6         O               -10.178340         15.885249
   7         O                -0.804246          1.495638
   8         O                -0.765526          1.455640
   9         O                -0.707796          1.401113
  10         O                -0.649189          1.509167
  11         O                -0.552604          1.434310
  12         O                -0.545411          1.074043
  13         O                -0.464147          1.088271
  14         O                -0.439064          1.155073
  15         O                -0.408521          0.937191
  16         O                -0.405946          0.946886
  17         O                -0.396729          1.204485
  18         O                -0.390344          1.166853
  19         O                -0.355853          1.347948
  20         O                -0.349574          1.164145
  21         O                -0.333197          1.233782
  22         O                -0.299196          1.029749
  23         O                -0.205530          1.182323
  24         V                -0.013399          1.283256
  25         V                 0.082390          1.266137
  26         V                 0.108264          0.884278
  27         V                 0.119442          0.951964
  28         V                 0.123570          0.949353
  29         V                 0.140177          0.977648
  30         V                 0.157560          1.016091
  31         V                 0.167268          1.071964
  32         V                 0.190243          1.001738
  33         V                 0.197378          1.055900
  34         V                 0.199634          1.336835
  35         V                 0.211116          1.068822
  36         V                 0.256504          1.698181
  37         V                 0.287924          1.513447
  38         V                 0.349153          1.101664
  39         V                 0.353344          1.381829
  40         V                 0.416245          1.776342
  41         V                 0.486578          1.661098
  42         V                 0.504305          1.723128
  43         V                 0.538897          1.943532
  44         V                 0.568333          1.808042
  45         V                 0.572609          2.144513
  46         V                 0.587312          2.422613
  47         V                 0.601104          1.894708
  48         V                 0.606790          1.827756
  49         V                 0.625182          1.894516
  50         V                 0.632037          2.072358
  51         V                 0.686542          2.121802
  52         V                 0.745678          2.136264
  53         V                 0.755191          2.240193
  54         V                 0.762305          2.290804
  55         V                 0.776084          2.491665
  56         V                 0.788899          2.513019
  57         V                 0.854465          2.808231
  58         V                 0.872680          2.558341
  59         V                 0.875513          2.561261
  60         V                 0.876201          2.544183
  61         V                 0.893058          2.565042
  62         V                 0.902800          2.547855
  63         V                 0.920760          2.520276
  64         V                 0.929135          2.644604
  65         V                 0.955753          2.742161
  66         V                 0.955842          2.657549
  67         V                 1.000833          2.437434
  68         V                 1.063809          2.329414
  69         V                 1.149938          2.242844
  70         V                 1.160270          2.224858
  71         V                 1.298525          2.411168
  72         V                 1.299706          2.496073
  73         V                 1.352069          2.497539
  74         V                 1.357084          2.355451
  75         V                 1.411635          2.573855
  76         V                 1.442611          2.587324
  77         V                 1.458450          2.494634
  78         V                 1.533786          2.687014
  79         V                 1.669807          2.839154
  80         V                 1.797214          3.030921
  81         V                 1.799063          3.068829
  82         V                 1.843383          3.158184
  83         V                 1.887519          3.150199
  84         V                 1.909997          3.256541
  85         V                 1.957235          3.093356
  86         V                 2.037847          3.398183
  87         V                 2.084973          3.427265
  88         V                 2.094340          3.279721
  89         V                 2.112983          3.490051
  90         V                 2.133028          3.394833
  91         V                 2.201311          3.519619
  92         V                 2.209530          3.662359
  93         V                 2.263047          3.660025
  94         V                 2.337377          3.801499
  95         V                 2.338112          3.626870
  96         V                 2.352545          3.799589
  97         V                 2.501170          3.950389
  98         V                 2.511570          3.796342
  99         V                 2.521233          3.783247
 100         V                 2.650705          4.370141
 101         V                 2.783211          4.578742
 102         V                 2.811872          4.708785
 103         V                 3.029228          4.863295
 104         V                 3.029609          4.768592
 105         V                 4.103550         10.170009
 106         V                 4.134881         10.194706
 107         V                 4.174503         10.160629
 108         V                 4.290254         10.151546
 109         V                 4.383856         10.132833
 110         V                 4.513864         10.122275
 Total kinetic energy from orbitals= 2.322272522021D+02
 Leave Link  601 at Sat Jun 05 22:52:30 2021, MaxMem=    33554432 cpu:         0.0
 (Enter C:\G09W\l9999.exe)
 1|1|UNPC-DESKTOP-283F0EC|SP|RB3LYP TD-FC|6-31G(d)|C6H10|HANA|05-Jun-20
 21|0||#p td b3lyp/6-31g(d) nosymm geom=connectivity pop=full||Title Ca
 rd Required||0,1|C,0,1.80212984,0.44073363,-0.00000638|H,0,1.71930272,
 1.52805554,-0.00001586|C,0,0.66958704,-0.28272148,0.00000366|H,0,0.733
 80648,-1.37321218,0.00001007|C,0,-0.66958704,0.28272148,0.00000526|H,0
 ,-0.73380648,1.37321218,0.00001548|C,0,-1.80212984,-0.44073363,-0.0000
 0395|H,0,-1.71930272,-1.52805554,-0.00001404|C,0,-3.19557054,0.1380063
 2,-0.00000032|H,0,-3.95486303,-0.64984534,-0.00002472|H,0,-3.37540021,
 0.76629373,0.88217363|H,0,-3.37538702,0.76633622,-0.88214662|C,0,3.195
 57054,-0.13800632,0.00000029|H,0,3.37533642,-0.76646329,-0.88206539|H,
 0,3.95486302,0.64984532,-0.00017882|H,0,3.37545082,-0.76616665,0.88225
 483||Version=EM64W-G09RevD.01|HF=-234.6259145|RMSD=5.895e-009|PG=C01 [
 X(C6H10)]||@


 IF THERE IS ONE WAY BETTER THAN ANOTHER IT IS THE WAY OF NATURE.

                          -- ARISTOTLE
 Job cpu time:       0 days  0 hours  1 minutes 38.0 seconds.
 File lengths (MBytes):  RWF=     24 Int=      0 D2E=      0 Chk=      3 Scr=      1
 Normal termination of Gaussian 09 at Sat Jun 05 22:52:31 2021.
